<?xml version="1.0" encoding="UTF-8"?>

<!-- generated on 2025-03-26 09:26:13 by Eclipse SUMO GUI Version 1.22.0
<sumoConfiguration xmlns:xsi="http://www.w3.org/2001/XMLSchema-instance" xsi:noNamespaceSchemaLocation="http://sumo.dlr.de/xsd/sumoConfiguration.xsd">

    <input>
        <net-file value="app/cross.net.xml"/>
        <route-files value="app/vehicles.rou.xml"/>
    </input>

    <output>
        <queue-output value="app/statistiche/queue.xml"/>
        <summary-output value="app/statistiche/summary.xml"/>
        <tripinfo-output value="app/statistiche/tripinfo.xml"/>
        <vehroute-output value="app/statistiche/vehroute.xml"/>
    </output>

    <time>
        <begin value="0"/>
        <end value="86400"/>
    </time>

    <processing>
        <collision.action value="warn"/>
        <collision.stoptime value="1800"/>
        <collision.check-junctions value="true"/>
        <time-to-teleport value="-1"/>
    </processing>

    <report>
        <no-warnings value="true"/>
    </report>

    <traci_server>
        <remote-port value="57230"/>
    </traci_server>

    <random_number>
        <random value="true"/>
        <seed value="1742977572"/>
    </random_number>

    <gui_only>
        <gui-settings-file value="app/view.port.xml"/>
        <start value="true"/>
        <delay value="100"/>
    </gui_only>

</sumoConfiguration>
-->

<tripinfos xmlns:xsi="http://www.w3.org/2001/XMLSchema-instance" xsi:noNamespaceSchemaLocation="http://sumo.dlr.de/xsd/tripinfo_file.xsd">
    <tripinfo id="SN_wakeup_moto.0" depart="8.00" departLane="-E8_0" departPos="2.10" departSpeed="0.00" departDelay="0.00" arrival="27.00" arrivalLane="E7_0" arrivalPos="89.60" arrivalSpeed="13.78" duration="19.00" routeLength="197.90" waitingTime="0.00" waitingCount="0" stopTime="0.00" timeLoss="3.84" rerouteNo="0" devices="vehroute_SN_wakeup_moto.0 tripinfo_SN_wakeup_moto.0 routing_SN_wakeup_moto.0" vType="motorcycle" speedFactor="1.01" vaporized=""/>
    <tripinfo id="EW_wakeup_car_right.0" depart="28.00" departLane="-E5_0" departPos="4.60" departSpeed="0.00" departDelay="0.00" arrival="49.00" arrivalLane="E7_0" arrivalPos="89.60" arrivalSpeed="12.75" duration="21.00" routeLength="183.63" waitingTime="0.00" waitingCount="0" stopTime="0.00" timeLoss="6.24" rerouteNo="0" devices="vehroute_EW_wakeup_car_right.0 tripinfo_EW_wakeup_car_right.0 routing_EW_wakeup_car_right.0" vType="car" speedFactor="0.98" vaporized=""/>
    <tripinfo id="WE_wakeup_car.0" depart="22.00" departLane="-E6_0" departPos="4.60" departSpeed="0.00" departDelay="0.00" arrival="78.00" arrivalLane="E5_0" arrivalPos="89.60" arrivalSpeed="13.81" duration="56.00" routeLength="195.40" waitingTime="32.00" waitingCount="1" stopTime="0.00" timeLoss="41.44" rerouteNo="0" devices="vehroute_WE_wakeup_car.0 tripinfo_WE_wakeup_car.0 routing_WE_wakeup_car.0" vType="car" speedFactor="1.07" vaporized=""/>
    <tripinfo id="SN_wakeup_car.0" depart="40.00" departLane="-E8_0" departPos="4.60" departSpeed="0.00" departDelay="0.00" arrival="130.00" arrivalLane="E7_0" arrivalPos="89.60" arrivalSpeed="11.87" duration="90.00" routeLength="195.40" waitingTime="65.00" waitingCount="1" stopTime="0.00" timeLoss="73.83" rerouteNo="0" devices="vehroute_SN_wakeup_car.0 tripinfo_SN_wakeup_car.0 routing_SN_wakeup_car.0" vType="car" speedFactor="0.92" vaporized=""/>
    <tripinfo id="NS_wakeup_truck.0" depart="69.00" departLane="-E7_0" departPos="7.10" departSpeed="0.00" departDelay="0.00" arrival="132.00" arrivalLane="E8_0" arrivalPos="89.60" arrivalSpeed="10.61" duration="63.00" routeLength="192.90" waitingTime="34.00" waitingCount="1" stopTime="0.00" timeLoss="45.21" rerouteNo="0" devices="vehroute_NS_wakeup_truck.0 tripinfo_NS_wakeup_truck.0 routing_NS_wakeup_truck.0" vType="truck" speedFactor="1.01" vaporized=""/>
    <tripinfo id="SN_wakeup_car.1" depart="84.00" departLane="-E8_0" departPos="4.60" departSpeed="0.00" departDelay="0.00" arrival="133.00" arrivalLane="E7_0" arrivalPos="89.60" arrivalSpeed="13.30" duration="49.00" routeLength="195.40" waitingTime="25.00" waitingCount="1" stopTime="0.00" timeLoss="34.43" rerouteNo="0" devices="vehroute_SN_wakeup_car.1 tripinfo_SN_wakeup_car.1 routing_SN_wakeup_car.1" vType="car" speedFactor="1.02" vaporized=""/>
    <tripinfo id="NS_wakeup_delivery.0" depart="136.00" departLane="-E7_0" departPos="6.10" departSpeed="0.00" departDelay="0.00" arrival="160.00" arrivalLane="E8_0" arrivalPos="89.60" arrivalSpeed="9.06" duration="24.00" routeLength="193.90" waitingTime="0.00" waitingCount="0" stopTime="0.00" timeLoss="3.40" rerouteNo="0" devices="vehroute_NS_wakeup_delivery.0 tripinfo_NS_wakeup_delivery.0 routing_NS_wakeup_delivery.0" vType="delivery" speedFactor="1.00" vaporized=""/>
    <tripinfo id="NS_wakeup_delivery.1" depart="139.00" departLane="-E7_0" departPos="6.10" departSpeed="0.00" departDelay="1.00" arrival="163.00" arrivalLane="E8_0" arrivalPos="89.60" arrivalSpeed="9.61" duration="24.00" routeLength="193.90" waitingTime="0.00" waitingCount="0" stopTime="0.00" timeLoss="3.75" rerouteNo="0" devices="vehroute_NS_wakeup_delivery.1 tripinfo_NS_wakeup_delivery.1 routing_NS_wakeup_delivery.1" vType="delivery" speedFactor="0.95" vaporized=""/>
    <tripinfo id="SN_wakeup_moto_left.0" depart="80.00" departLane="-E8_0" departPos="2.10" departSpeed="0.00" departDelay="0.00" arrival="178.00" arrivalLane="E6_1" arrivalPos="89.60" arrivalSpeed="13.78" duration="98.00" routeLength="196.45" waitingTime="73.00" waitingCount="1" stopTime="0.00" timeLoss="82.86" rerouteNo="0" devices="vehroute_SN_wakeup_moto_left.0 tripinfo_SN_wakeup_moto_left.0 routing_SN_wakeup_moto_left.0" vType="motorcycle" speedFactor="1.04" vaporized=""/>
    <tripinfo id="NS_wakeup_car_left.0" depart="172.00" departLane="-E7_0" departPos="4.60" departSpeed="0.00" departDelay="0.00" arrival="191.00" arrivalLane="E5_1" arrivalPos="89.60" arrivalSpeed="13.81" duration="19.00" routeLength="193.95" waitingTime="0.00" waitingCount="0" stopTime="0.00" timeLoss="3.94" rerouteNo="0" devices="vehroute_NS_wakeup_car_left.0 tripinfo_NS_wakeup_car_left.0 routing_NS_wakeup_car_left.0" vType="car" speedFactor="1.12" vaporized=""/>
    <tripinfo id="WE_wakeup_moto.0" depart="146.00" departLane="-E6_0" departPos="2.10" departSpeed="0.00" departDelay="0.00" arrival="196.00" arrivalLane="E5_0" arrivalPos="89.60" arrivalSpeed="12.83" duration="50.00" routeLength="197.90" waitingTime="25.00" waitingCount="1" stopTime="0.00" timeLoss="35.21" rerouteNo="0" devices="vehroute_WE_wakeup_moto.0 tripinfo_WE_wakeup_moto.0 routing_WE_wakeup_moto.0" vType="motorcycle" speedFactor="1.05" vaporized=""/>
    <tripinfo id="EW_wakeup_car.0" depart="130.00" departLane="-E5_0" departPos="4.60" departSpeed="0.00" departDelay="0.00" arrival="197.00" arrivalLane="E6_0" arrivalPos="89.60" arrivalSpeed="11.25" duration="67.00" routeLength="195.40" waitingTime="42.00" waitingCount="1" stopTime="0.00" timeLoss="50.54" rerouteNo="0" devices="vehroute_EW_wakeup_car.0 tripinfo_EW_wakeup_car.0 routing_EW_wakeup_car.0" vType="car" speedFactor="0.90" vaporized=""/>
    <tripinfo id="WE_wakeup_car.1" depart="180.00" departLane="-E6_0" departPos="4.60" departSpeed="0.00" departDelay="0.00" arrival="199.00" arrivalLane="E5_0" arrivalPos="89.60" arrivalSpeed="12.56" duration="19.00" routeLength="195.40" waitingTime="0.00" waitingCount="0" stopTime="0.00" timeLoss="3.57" rerouteNo="0" devices="vehroute_WE_wakeup_car.1 tripinfo_WE_wakeup_car.1 routing_WE_wakeup_car.1" vType="car" speedFactor="0.91" vaporized=""/>
    <tripinfo id="EW_wakeup_car_left.0" depart="200.00" departLane="-E5_0" departPos="4.60" departSpeed="0.00" departDelay="0.00" arrival="229.00" arrivalLane="E8_1" arrivalPos="89.60" arrivalSpeed="12.29" duration="29.00" routeLength="193.95" waitingTime="5.00" waitingCount="1" stopTime="0.00" timeLoss="13.35" rerouteNo="0" devices="vehroute_EW_wakeup_car_left.0 tripinfo_EW_wakeup_car_left.0 routing_EW_wakeup_car_left.0" vType="car" speedFactor="0.97" vaporized=""/>
    <tripinfo id="SN_wakeup_moto.1" depart="184.00" departLane="-E8_0" departPos="2.10" departSpeed="0.00" departDelay="0.00" arrival="247.00" arrivalLane="E7_0" arrivalPos="89.60" arrivalSpeed="12.23" duration="63.00" routeLength="197.90" waitingTime="39.00" waitingCount="1" stopTime="0.00" timeLoss="47.44" rerouteNo="0" devices="vehroute_SN_wakeup_moto.1 tripinfo_SN_wakeup_moto.1 routing_SN_wakeup_moto.1" vType="motorcycle" speedFactor="0.94" vaporized=""/>
    <tripinfo id="SN_wakeup_moto.2" depart="188.00" departLane="-E8_0" departPos="2.10" departSpeed="0.00" departDelay="0.00" arrival="248.00" arrivalLane="E7_1" arrivalPos="89.60" arrivalSpeed="10.19" duration="60.00" routeLength="197.90" waitingTime="33.00" waitingCount="1" stopTime="0.00" timeLoss="42.44" rerouteNo="0" devices="vehroute_SN_wakeup_moto.2 tripinfo_SN_wakeup_moto.2 routing_SN_wakeup_moto.2" vType="motorcycle" speedFactor="0.84" vaporized=""/>
    <tripinfo id="SN_wakeup_car.2" depart="224.00" departLane="-E8_0" departPos="4.60" departSpeed="0.00" departDelay="0.00" arrival="248.00" arrivalLane="E7_0" arrivalPos="89.60" arrivalSpeed="13.71" duration="24.00" routeLength="195.40" waitingTime="1.00" waitingCount="1" stopTime="0.00" timeLoss="9.94" rerouteNo="0" devices="vehroute_SN_wakeup_car.2 tripinfo_SN_wakeup_car.2 routing_SN_wakeup_car.2" vType="car" speedFactor="1.02" vaporized=""/>
    <tripinfo id="NS_wakeup_truck.1" depart="191.00" departLane="-E7_0" departPos="7.10" departSpeed="0.00" departDelay="0.00" arrival="250.00" arrivalLane="E8_0" arrivalPos="89.60" arrivalSpeed="10.96" duration="59.00" routeLength="192.90" waitingTime="29.00" waitingCount="1" stopTime="0.00" timeLoss="41.20" rerouteNo="0" devices="vehroute_NS_wakeup_truck.1 tripinfo_NS_wakeup_truck.1 routing_NS_wakeup_truck.1" vType="truck" speedFactor="0.95" vaporized=""/>
    <tripinfo id="NS_wakeup_moto_left.0" depart="263.00" departLane="-E7_0" departPos="2.10" departSpeed="0.00" departDelay="0.00" arrival="296.00" arrivalLane="E5_1" arrivalPos="89.60" arrivalSpeed="11.57" duration="33.00" routeLength="196.45" waitingTime="8.00" waitingCount="1" stopTime="0.00" timeLoss="16.81" rerouteNo="0" devices="vehroute_NS_wakeup_moto_left.0 tripinfo_NS_wakeup_moto_left.0 routing_NS_wakeup_moto_left.0" vType="motorcycle" speedFactor="0.92" vaporized=""/>
    <tripinfo id="SN_wakeup_car_left.0" depart="210.00" departLane="-E8_0" departPos="4.60" departSpeed="0.00" departDelay="0.00" arrival="299.00" arrivalLane="E6_1" arrivalPos="89.60" arrivalSpeed="9.22" duration="89.00" routeLength="193.95" waitingTime="58.00" waitingCount="2" stopTime="0.00" timeLoss="68.69" rerouteNo="0" devices="vehroute_SN_wakeup_car_left.0 tripinfo_SN_wakeup_car_left.0 routing_SN_wakeup_car_left.0" vType="car" speedFactor="0.72" vaporized=""/>
    <tripinfo id="EW_wakeup_car.1" depart="218.00" departLane="-E5_0" departPos="4.60" departSpeed="0.00" departDelay="0.00" arrival="315.00" arrivalLane="E6_0" arrivalPos="89.60" arrivalSpeed="11.94" duration="97.00" routeLength="195.40" waitingTime="71.00" waitingCount="1" stopTime="0.00" timeLoss="80.20" rerouteNo="0" devices="vehroute_EW_wakeup_car.1 tripinfo_EW_wakeup_car.1 routing_EW_wakeup_car.1" vType="car" speedFactor="0.87" vaporized=""/>
    <tripinfo id="WE_wakeup_delivery.0" depart="288.00" departLane="-E6_0" departPos="6.10" departSpeed="0.00" departDelay="0.00" arrival="317.00" arrivalLane="E5_0" arrivalPos="89.60" arrivalSpeed="9.55" duration="29.00" routeLength="193.90" waitingTime="0.00" waitingCount="0" stopTime="0.00" timeLoss="8.62" rerouteNo="0" devices="vehroute_WE_wakeup_delivery.0 tripinfo_WE_wakeup_delivery.0 routing_WE_wakeup_delivery.0" vType="delivery" speedFactor="1.10" vaporized=""/>
    <tripinfo id="WE_wakeup_car_right.0" depart="327.00" departLane="-E6_0" departPos="4.60" departSpeed="0.00" departDelay="0.00" arrival="347.00" arrivalLane="E8_0" arrivalPos="89.60" arrivalSpeed="12.71" duration="20.00" routeLength="183.63" waitingTime="0.00" waitingCount="0" stopTime="0.00" timeLoss="5.20" rerouteNo="0" devices="vehroute_WE_wakeup_car_right.0 tripinfo_WE_wakeup_car_right.0 routing_WE_wakeup_car_right.0" vType="car" speedFactor="0.96" vaporized=""/>
    <tripinfo id="WE_wakeup_car_right.1" depart="339.00" departLane="-E6_0" departPos="4.60" departSpeed="0.00" departDelay="0.00" arrival="361.00" arrivalLane="E8_0" arrivalPos="89.60" arrivalSpeed="10.89" duration="22.00" routeLength="183.63" waitingTime="0.00" waitingCount="0" stopTime="0.00" timeLoss="4.63" rerouteNo="0" devices="vehroute_WE_wakeup_car_right.1 tripinfo_WE_wakeup_car_right.1 routing_WE_wakeup_car_right.1" vType="car" speedFactor="0.82" vaporized=""/>
    <tripinfo id="SN_wakeup_car.3" depart="296.00" departLane="-E8_0" departPos="4.60" departSpeed="0.00" departDelay="0.00" arrival="365.00" arrivalLane="E7_0" arrivalPos="89.60" arrivalSpeed="13.20" duration="69.00" routeLength="195.40" waitingTime="43.00" waitingCount="1" stopTime="0.00" timeLoss="54.36" rerouteNo="0" devices="vehroute_SN_wakeup_car.3 tripinfo_SN_wakeup_car.3 routing_SN_wakeup_car.3" vType="car" speedFactor="1.00" vaporized=""/>
    <tripinfo id="NS_wakeup_car.0" depart="281.00" departLane="-E7_0" departPos="4.60" departSpeed="0.00" departDelay="0.00" arrival="366.00" arrivalLane="E8_0" arrivalPos="89.60" arrivalSpeed="11.94" duration="85.00" routeLength="195.40" waitingTime="61.00" waitingCount="1" stopTime="0.00" timeLoss="68.84" rerouteNo="0" devices="vehroute_NS_wakeup_car.0 tripinfo_NS_wakeup_car.0 routing_NS_wakeup_car.0" vType="car" speedFactor="0.90" vaporized=""/>
    <tripinfo id="SN_wakeup_moto.3" depart="304.00" departLane="-E8_0" departPos="2.10" departSpeed="0.00" departDelay="0.00" arrival="367.00" arrivalLane="E7_1" arrivalPos="89.60" arrivalSpeed="13.70" duration="63.00" routeLength="197.90" waitingTime="36.00" waitingCount="1" stopTime="0.00" timeLoss="48.57" rerouteNo="0" devices="vehroute_SN_wakeup_moto.3 tripinfo_SN_wakeup_moto.3 routing_SN_wakeup_moto.3" vType="motorcycle" speedFactor="1.15" vaporized=""/>
    <tripinfo id="SN_wakeup_truck.0" depart="288.00" departLane="-E8_0" departPos="7.10" departSpeed="0.00" departDelay="0.00" arrival="368.00" arrivalLane="E7_0" arrivalPos="89.60" arrivalSpeed="10.78" duration="80.00" routeLength="192.90" waitingTime="51.00" waitingCount="1" stopTime="0.00" timeLoss="62.50" rerouteNo="0" devices="vehroute_SN_wakeup_truck.0 tripinfo_SN_wakeup_truck.0 routing_SN_wakeup_truck.0" vType="truck" speedFactor="1.03" vaporized=""/>
    <tripinfo id="SN_wakeup_moto.4" depart="314.00" departLane="-E8_0" departPos="2.10" departSpeed="0.00" departDelay="0.00" arrival="371.00" arrivalLane="E7_0" arrivalPos="89.60" arrivalSpeed="10.47" duration="57.00" routeLength="197.90" waitingTime="28.00" waitingCount="1" stopTime="0.00" timeLoss="38.54" rerouteNo="0" devices="vehroute_SN_wakeup_moto.4 tripinfo_SN_wakeup_moto.4 routing_SN_wakeup_moto.4" vType="motorcycle" speedFactor="0.80" vaporized=""/>
    <tripinfo id="NS_wakeup_bus.0" depart="290.00" departLane="-E7_0" departPos="12.10" departSpeed="0.00" departDelay="0.00" arrival="372.00" arrivalLane="E8_0" arrivalPos="89.60" arrivalSpeed="8.19" duration="82.00" routeLength="187.90" waitingTime="48.00" waitingCount="1" stopTime="0.00" timeLoss="58.80" rerouteNo="0" devices="vehroute_NS_wakeup_bus.0 tripinfo_NS_wakeup_bus.0 routing_NS_wakeup_bus.0" vType="bus" speedFactor="1.00" vaporized=""/>
    <tripinfo id="SN_wakeup_moto.5" depart="350.00" departLane="-E8_0" departPos="2.10" departSpeed="0.00" departDelay="0.00" arrival="372.00" arrivalLane="E7_0" arrivalPos="89.60" arrivalSpeed="12.55" duration="22.00" routeLength="197.90" waitingTime="0.00" waitingCount="0" stopTime="0.00" timeLoss="7.72" rerouteNo="0" devices="vehroute_SN_wakeup_moto.5 tripinfo_SN_wakeup_moto.5 routing_SN_wakeup_moto.5" vType="motorcycle" speedFactor="1.06" vaporized=""/>
    <tripinfo id="WE_wakeup_moto_right.0" depart="359.00" departLane="-E6_0" departPos="2.10" departSpeed="0.00" departDelay="0.00" arrival="380.00" arrivalLane="E8_0" arrivalPos="89.60" arrivalSpeed="12.77" duration="21.00" routeLength="186.13" waitingTime="0.00" waitingCount="0" stopTime="0.00" timeLoss="6.07" rerouteNo="0" devices="vehroute_WE_wakeup_moto_right.0 tripinfo_WE_wakeup_moto_right.0 routing_WE_wakeup_moto_right.0" vType="motorcycle" speedFactor="1.06" vaporized=""/>
    <tripinfo id="SN_wakeup_car_left.1" depart="335.00" departLane="-E8_0" departPos="4.60" departSpeed="0.00" departDelay="0.00" arrival="414.00" arrivalLane="E6_1" arrivalPos="89.60" arrivalSpeed="12.40" duration="79.00" routeLength="193.95" waitingTime="50.00" waitingCount="2" stopTime="0.00" timeLoss="63.95" rerouteNo="0" devices="vehroute_SN_wakeup_car_left.1 tripinfo_SN_wakeup_car_left.1 routing_SN_wakeup_car_left.1" vType="car" speedFactor="0.97" vaporized=""/>
    <tripinfo id="NS_wakeup_moto_left.1" depart="396.00" departLane="-E7_0" departPos="2.10" departSpeed="0.00" departDelay="1.00" arrival="416.00" arrivalLane="E5_1" arrivalPos="89.60" arrivalSpeed="12.99" duration="20.00" routeLength="196.45" waitingTime="0.00" waitingCount="0" stopTime="0.00" timeLoss="4.50" rerouteNo="0" devices="vehroute_NS_wakeup_moto_left.1 tripinfo_NS_wakeup_moto_left.1 routing_NS_wakeup_moto_left.1" vType="motorcycle" speedFactor="1.10" vaporized=""/>
    <tripinfo id="EW_wakeup_car.3" depart="345.00" departLane="-E5_0" departPos="4.60" departSpeed="0.00" departDelay="0.00" arrival="419.00" arrivalLane="E6_0" arrivalPos="89.60" arrivalSpeed="11.90" duration="74.00" routeLength="195.40" waitingTime="47.00" waitingCount="2" stopTime="0.00" timeLoss="58.48" rerouteNo="0" devices="vehroute_EW_wakeup_car.3 tripinfo_EW_wakeup_car.3 routing_EW_wakeup_car.3" vType="car" speedFactor="0.94" vaporized=""/>
    <tripinfo id="EW_wakeup_car.2" depart="326.00" departLane="-E5_0" departPos="4.60" departSpeed="0.00" departDelay="0.00" arrival="432.00" arrivalLane="E6_0" arrivalPos="89.60" arrivalSpeed="13.44" duration="106.00" routeLength="195.40" waitingTime="82.00" waitingCount="1" stopTime="0.00" timeLoss="91.56" rerouteNo="0" devices="vehroute_EW_wakeup_car.2 tripinfo_EW_wakeup_car.2 routing_EW_wakeup_car.2" vType="car" speedFactor="0.99" vaporized=""/>
    <tripinfo id="EW_wakeup_car_right.1" depart="348.00" departLane="-E5_0" departPos="4.60" departSpeed="0.00" departDelay="2.00" arrival="434.00" arrivalLane="E7_0" arrivalPos="89.60" arrivalSpeed="12.67" duration="86.00" routeLength="183.63" waitingTime="61.00" waitingCount="1" stopTime="0.00" timeLoss="71.77" rerouteNo="0" devices="vehroute_EW_wakeup_car_right.1 tripinfo_EW_wakeup_car_right.1 routing_EW_wakeup_car_right.1" vType="car" speedFactor="1.17" vaporized=""/>
    <tripinfo id="EW_wakeup_car_right.2" depart="351.00" departLane="-E5_0" departPos="4.60" departSpeed="0.00" departDelay="3.00" arrival="438.00" arrivalLane="E7_0" arrivalPos="89.60" arrivalSpeed="12.79" duration="87.00" routeLength="183.63" waitingTime="58.00" waitingCount="1" stopTime="0.00" timeLoss="71.66" rerouteNo="0" devices="vehroute_EW_wakeup_car_right.2 tripinfo_EW_wakeup_car_right.2 routing_EW_wakeup_car_right.2" vType="car" speedFactor="0.95" vaporized=""/>
    <tripinfo id="SN_wakeup_moto_right.0" depart="427.00" departLane="-E8_0" departPos="2.10" departSpeed="0.00" departDelay="0.00" arrival="464.00" arrivalLane="E5_0" arrivalPos="89.60" arrivalSpeed="13.34" duration="37.00" routeLength="186.13" waitingTime="15.00" waitingCount="1" stopTime="0.00" timeLoss="22.74" rerouteNo="0" devices="vehroute_SN_wakeup_moto_right.0 tripinfo_SN_wakeup_moto_right.0 routing_SN_wakeup_moto_right.0" vType="motorcycle" speedFactor="1.07" vaporized=""/>
    <tripinfo id="SN_wakeup_car.4" depart="406.00" departLane="-E8_0" departPos="4.60" departSpeed="0.00" departDelay="0.00" arrival="483.00" arrivalLane="E7_0" arrivalPos="89.60" arrivalSpeed="13.62" duration="77.00" routeLength="195.40" waitingTime="53.00" waitingCount="1" stopTime="0.00" timeLoss="62.25" rerouteNo="0" devices="vehroute_SN_wakeup_car.4 tripinfo_SN_wakeup_car.4 routing_SN_wakeup_car.4" vType="car" speedFactor="0.99" vaporized=""/>
    <tripinfo id="NS_wakeup_car.1" depart="393.00" departLane="-E7_0" departPos="4.60" departSpeed="0.00" departDelay="0.00" arrival="484.00" arrivalLane="E8_0" arrivalPos="89.60" arrivalSpeed="12.31" duration="91.00" routeLength="195.40" waitingTime="63.00" waitingCount="1" stopTime="0.00" timeLoss="75.04" rerouteNo="0" devices="vehroute_NS_wakeup_car.1 tripinfo_NS_wakeup_car.1 routing_NS_wakeup_car.1" vType="car" speedFactor="0.92" vaporized=""/>
    <tripinfo id="NS_wakeup_car.2" depart="466.00" departLane="-E7_0" departPos="4.60" departSpeed="0.00" departDelay="0.00" arrival="487.00" arrivalLane="E8_0" arrivalPos="89.60" arrivalSpeed="11.23" duration="21.00" routeLength="195.40" waitingTime="0.00" waitingCount="0" stopTime="0.00" timeLoss="3.26" rerouteNo="0" devices="vehroute_NS_wakeup_car.2 tripinfo_NS_wakeup_car.2 routing_NS_wakeup_car.2" vType="car" speedFactor="0.83" vaporized=""/>
    <tripinfo id="SN_wakeup_car.5" depart="489.00" departLane="-E8_0" departPos="4.60" departSpeed="0.00" departDelay="0.00" arrival="507.00" arrivalLane="E7_0" arrivalPos="89.60" arrivalSpeed="13.15" duration="18.00" routeLength="195.40" waitingTime="0.00" waitingCount="0" stopTime="0.00" timeLoss="3.56" rerouteNo="0" devices="vehroute_SN_wakeup_car.5 tripinfo_SN_wakeup_car.5 routing_SN_wakeup_car.5" vType="car" speedFactor="1.00" vaporized=""/>
    <tripinfo id="WE_wakeup_car_left.0" depart="468.00" departLane="-E6_0" departPos="4.60" departSpeed="0.00" departDelay="0.00" arrival="583.00" arrivalLane="E7_1" arrivalPos="89.60" arrivalSpeed="12.78" duration="115.00" routeLength="193.95" waitingTime="92.00" waitingCount="1" stopTime="0.00" timeLoss="99.05" rerouteNo="0" devices="vehroute_WE_wakeup_car_left.0 tripinfo_WE_wakeup_car_left.0 routing_WE_wakeup_car_left.0" vType="car" speedFactor="0.93" vaporized=""/>
    <tripinfo id="WE_wakeup_car_left.1" depart="535.00" departLane="-E6_0" departPos="4.60" departSpeed="0.00" departDelay="0.00" arrival="585.00" arrivalLane="E7_1" arrivalPos="89.60" arrivalSpeed="13.50" duration="50.00" routeLength="193.95" waitingTime="24.00" waitingCount="1" stopTime="0.00" timeLoss="34.61" rerouteNo="0" devices="vehroute_WE_wakeup_car_left.1 tripinfo_WE_wakeup_car_left.1 routing_WE_wakeup_car_left.1" vType="car" speedFactor="0.99" vaporized=""/>
    <tripinfo id="WE_wakeup_car_right.2" depart="577.00" departLane="-E6_0" departPos="4.60" departSpeed="0.00" departDelay="0.00" arrival="597.00" arrivalLane="E8_0" arrivalPos="89.60" arrivalSpeed="13.15" duration="20.00" routeLength="183.63" waitingTime="0.00" waitingCount="0" stopTime="0.00" timeLoss="5.46" rerouteNo="0" devices="vehroute_WE_wakeup_car_right.2 tripinfo_WE_wakeup_car_right.2 routing_WE_wakeup_car_right.2" vType="car" speedFactor="1.04" vaporized=""/>
    <tripinfo id="NS_wakeup_moto.0" depart="513.00" departLane="-E7_0" departPos="2.10" departSpeed="0.00" departDelay="0.00" arrival="602.00" arrivalLane="E8_0" arrivalPos="89.60" arrivalSpeed="10.02" duration="89.00" routeLength="197.90" waitingTime="64.00" waitingCount="1" stopTime="0.00" timeLoss="71.93" rerouteNo="0" devices="vehroute_NS_wakeup_moto.0 tripinfo_NS_wakeup_moto.0 routing_NS_wakeup_moto.0" vType="motorcycle" speedFactor="0.84" vaporized=""/>
    <tripinfo id="SN_wakeup_delivery.0" depart="526.00" departLane="-E8_0" departPos="6.10" departSpeed="0.00" departDelay="0.00" arrival="604.00" arrivalLane="E7_0" arrivalPos="89.60" arrivalSpeed="9.62" duration="78.00" routeLength="193.90" waitingTime="49.00" waitingCount="1" stopTime="0.00" timeLoss="57.46" rerouteNo="0" devices="vehroute_SN_wakeup_delivery.0 tripinfo_SN_wakeup_delivery.0 routing_SN_wakeup_delivery.0" vType="delivery" speedFactor="0.99" vaporized=""/>
    <tripinfo id="SN_wakeup_car.6" depart="538.00" departLane="-E8_0" departPos="4.60" departSpeed="0.00" departDelay="0.00" arrival="606.00" arrivalLane="E7_0" arrivalPos="89.60" arrivalSpeed="12.74" duration="68.00" routeLength="195.40" waitingTime="40.00" waitingCount="1" stopTime="0.00" timeLoss="52.11" rerouteNo="0" devices="vehroute_SN_wakeup_car.6 tripinfo_SN_wakeup_car.6 routing_SN_wakeup_car.6" vType="car" speedFactor="0.93" vaporized=""/>
    <tripinfo id="SN_wakeup_moto.6" depart="595.00" departLane="-E8_0" departPos="2.10" departSpeed="0.00" departDelay="0.00" arrival="613.00" arrivalLane="E7_0" arrivalPos="89.60" arrivalSpeed="13.18" duration="18.00" routeLength="197.90" waitingTime="0.00" waitingCount="0" stopTime="0.00" timeLoss="3.40" rerouteNo="0" devices="vehroute_SN_wakeup_moto.6 tripinfo_SN_wakeup_moto.6 routing_SN_wakeup_moto.6" vType="motorcycle" speedFactor="1.05" vaporized=""/>
    <tripinfo id="SN_wakeup_car.7" depart="609.00" departLane="-E8_0" departPos="4.60" departSpeed="0.00" departDelay="0.00" arrival="628.00" arrivalLane="E7_0" arrivalPos="89.60" arrivalSpeed="12.23" duration="19.00" routeLength="195.40" waitingTime="0.00" waitingCount="0" stopTime="0.00" timeLoss="3.09" rerouteNo="0" devices="vehroute_SN_wakeup_car.7 tripinfo_SN_wakeup_car.7 routing_SN_wakeup_car.7" vType="car" speedFactor="0.91" vaporized=""/>
    <tripinfo id="SN_wakeup_car_left.2" depart="529.00" departLane="-E8_0" departPos="4.60" departSpeed="0.00" departDelay="1.00" arrival="650.00" arrivalLane="E6_1" arrivalPos="89.60" arrivalSpeed="12.73" duration="121.00" routeLength="193.95" waitingTime="97.00" waitingCount="1" stopTime="0.00" timeLoss="105.76" rerouteNo="0" devices="vehroute_SN_wakeup_car_left.2 tripinfo_SN_wakeup_car_left.2 routing_SN_wakeup_car_left.2" vType="car" speedFactor="1.01" vaporized=""/>
    <tripinfo id="SN_wakeup_moto_left.1" depart="532.00" departLane="-E8_0" departPos="2.10" departSpeed="0.00" departDelay="0.00" arrival="652.00" arrivalLane="E6_1" arrivalPos="89.60" arrivalSpeed="13.12" duration="120.00" routeLength="196.45" waitingTime="96.00" waitingCount="1" stopTime="0.00" timeLoss="104.75" rerouteNo="0" devices="vehroute_SN_wakeup_moto_left.1 tripinfo_SN_wakeup_moto_left.1 routing_SN_wakeup_moto_left.1" vType="motorcycle" speedFactor="0.98" vaporized=""/>
    <tripinfo id="EW_wakeup_car_right.3" depart="643.00" departLane="-E5_0" departPos="4.60" departSpeed="0.00" departDelay="0.00" arrival="662.00" arrivalLane="E7_0" arrivalPos="89.60" arrivalSpeed="13.20" duration="19.00" routeLength="183.63" waitingTime="0.00" waitingCount="0" stopTime="0.00" timeLoss="4.68" rerouteNo="0" devices="vehroute_EW_wakeup_car_right.3 tripinfo_EW_wakeup_car_right.3 routing_EW_wakeup_car_right.3" vType="car" speedFactor="1.16" vaporized=""/>
    <tripinfo id="EW_wakeup_truck.0" depart="649.00" departLane="-E5_0" departPos="7.10" departSpeed="0.00" departDelay="0.00" arrival="671.00" arrivalLane="E6_0" arrivalPos="89.60" arrivalSpeed="10.93" duration="22.00" routeLength="192.90" waitingTime="0.00" waitingCount="0" stopTime="0.00" timeLoss="4.62" rerouteNo="0" devices="vehroute_EW_wakeup_truck.0 tripinfo_EW_wakeup_truck.0 routing_EW_wakeup_truck.0" vType="truck" speedFactor="1.05" vaporized=""/>
    <tripinfo id="EW_wakeup_car_left.1" depart="587.00" departLane="-E5_0" departPos="4.60" departSpeed="0.00" departDelay="0.00" arrival="701.00" arrivalLane="E8_1" arrivalPos="89.60" arrivalSpeed="12.87" duration="114.00" routeLength="193.95" waitingTime="90.00" waitingCount="1" stopTime="0.00" timeLoss="98.84" rerouteNo="0" devices="vehroute_EW_wakeup_car_left.1 tripinfo_EW_wakeup_car_left.1 routing_EW_wakeup_car_left.1" vType="car" speedFactor="0.98" vaporized=""/>
    <tripinfo id="SN_wakeup_moto.7" depart="644.00" departLane="-E8_0" departPos="2.10" departSpeed="0.00" departDelay="0.00" arrival="719.00" arrivalLane="E7_0" arrivalPos="89.60" arrivalSpeed="11.82" duration="75.00" routeLength="197.90" waitingTime="50.00" waitingCount="1" stopTime="0.00" timeLoss="59.26" rerouteNo="0" devices="vehroute_SN_wakeup_moto.7 tripinfo_SN_wakeup_moto.7 routing_SN_wakeup_moto.7" vType="motorcycle" speedFactor="0.94" vaporized=""/>
    <tripinfo id="NS_wakeup_car.3" depart="674.00" departLane="-E7_0" departPos="4.60" departSpeed="0.00" departDelay="0.00" arrival="719.00" arrivalLane="E8_0" arrivalPos="89.60" arrivalSpeed="11.98" duration="45.00" routeLength="195.40" waitingTime="22.00" waitingCount="1" stopTime="0.00" timeLoss="29.16" rerouteNo="0" devices="vehroute_NS_wakeup_car.3 tripinfo_NS_wakeup_car.3 routing_NS_wakeup_car.3" vType="car" speedFactor="0.90" vaporized=""/>
    <tripinfo id="NS_wakeup_car.4" depart="695.00" departLane="-E7_0" departPos="4.60" departSpeed="0.00" departDelay="0.00" arrival="720.00" arrivalLane="E8_1" arrivalPos="89.60" arrivalSpeed="10.74" duration="25.00" routeLength="195.40" waitingTime="0.00" waitingCount="0" stopTime="0.00" timeLoss="7.27" rerouteNo="0" devices="vehroute_NS_wakeup_car.4 tripinfo_NS_wakeup_car.4 routing_NS_wakeup_car.4" vType="car" speedFactor="0.82" vaporized=""/>
    <tripinfo id="NS_wakeup_car_right.0" depart="698.00" departLane="-E7_0" departPos="4.60" departSpeed="0.00" departDelay="2.00" arrival="720.00" arrivalLane="E6_0" arrivalPos="89.60" arrivalSpeed="13.63" duration="22.00" routeLength="183.63" waitingTime="0.00" waitingCount="0" stopTime="0.00" timeLoss="7.48" rerouteNo="0" devices="vehroute_NS_wakeup_car_right.0 tripinfo_NS_wakeup_car_right.0 routing_NS_wakeup_car_right.0" vType="car" speedFactor="1.02" vaporized=""/>
    <tripinfo id="SN_wakeup_truck.1" depart="629.00" departLane="-E8_0" departPos="7.10" departSpeed="0.00" departDelay="0.00" arrival="722.00" arrivalLane="E7_0" arrivalPos="89.60" arrivalSpeed="10.66" duration="93.00" routeLength="192.90" waitingTime="64.00" waitingCount="1" stopTime="0.00" timeLoss="75.15" rerouteNo="0" devices="vehroute_SN_wakeup_truck.1 tripinfo_SN_wakeup_truck.1 routing_SN_wakeup_truck.1" vType="truck" speedFactor="0.93" vaporized=""/>