<?xml version="1.0" encoding="UTF-8"?>

<!-- generated on 2025-03-26 12:40:27 by Eclipse SUMO sumo Version 1.22.0
<sumoConfiguration xmlns:xsi="http://www.w3.org/2001/XMLSchema-instance" xsi:noNamespaceSchemaLocation="http://sumo.dlr.de/xsd/sumoConfiguration.xsd">

    <input>
        <net-file value="app/cross.net.xml"/>
        <route-files value="app/vehicles.rou.xml"/>
    </input>

    <output>
        <queue-output value="app/statistiche/queue.xml"/>
        <summary-output value="app/statistiche/summary.xml"/>
        <tripinfo-output value="app/statistiche/tripinfo.xml"/>
        <vehroute-output value="app/statistiche/vehroute.xml"/>
    </output>

    <time>
        <begin value="0"/>
        <end value="86400"/>
    </time>

    <processing>
        <collision.action value="warn"/>
        <collision.stoptime value="1800"/>
        <collision.check-junctions value="true"/>
        <time-to-teleport value="-1"/>
    </processing>

    <report>
        <no-warnings value="true"/>
    </report>

    <traci_server>
        <remote-port value="52943"/>
    </traci_server>

    <random_number>
        <random value="true"/>
        <seed value="1742989247"/>
    </random_number>

    <gui_only>
        <gui-settings-file value="app/view.port.xml"/>
        <start value="true"/>
        <delay value="100"/>
    </gui_only>

</sumoConfiguration>
-->

<tripinfos xmlns:xsi="http://www.w3.org/2001/XMLSchema-instance" xsi:noNamespaceSchemaLocation="http://sumo.dlr.de/xsd/tripinfo_file.xsd">
    <tripinfo id="SN_wakeup_car.0" depart="14.00" departLane="-E8_0" departPos="4.60" departSpeed="0.00" departDelay="0.00" arrival="32.00" arrivalLane="E7_0" arrivalPos="89.60" arrivalSpeed="13.02" duration="18.00" routeLength="195.40" waitingTime="0.00" waitingCount="0" stopTime="0.00" timeLoss="3.91" rerouteNo="0" devices="vehroute_SN_wakeup_car.0 tripinfo_SN_wakeup_car.0 routing_SN_wakeup_car.0" vType="car" speedFactor="1.07" vaporized=""/>
    <tripinfo id="NS_wakeup_truck.0" depart="25.00" departLane="-E7_0" departPos="7.10" departSpeed="0.00" departDelay="0.00" arrival="47.00" arrivalLane="E8_0" arrivalPos="89.60" arrivalSpeed="10.79" duration="22.00" routeLength="192.90" waitingTime="0.00" waitingCount="0" stopTime="0.00" timeLoss="4.61" rerouteNo="0" devices="vehroute_NS_wakeup_truck.0 tripinfo_NS_wakeup_truck.0 routing_NS_wakeup_truck.0" vType="truck" speedFactor="0.87" vaporized=""/>
    <tripinfo id="SN_wakeup_car.1" depart="33.00" departLane="-E8_0" departPos="4.60" departSpeed="0.00" departDelay="0.00" arrival="52.00" arrivalLane="E7_0" arrivalPos="89.60" arrivalSpeed="13.14" duration="19.00" routeLength="195.40" waitingTime="0.00" waitingCount="0" stopTime="0.00" timeLoss="3.29" rerouteNo="0" devices="vehroute_SN_wakeup_car.1 tripinfo_SN_wakeup_car.1 routing_SN_wakeup_car.1" vType="car" speedFactor="0.95" vaporized=""/>
    <tripinfo id="EW_wakeup_moto.0" depart="26.00" departLane="-E5_0" departPos="2.10" departSpeed="0.00" departDelay="0.00" arrival="78.00" arrivalLane="E6_0" arrivalPos="89.60" arrivalSpeed="12.70" duration="52.00" routeLength="197.90" waitingTime="27.00" waitingCount="1" stopTime="0.00" timeLoss="36.78" rerouteNo="0" devices="vehroute_EW_wakeup_moto.0 tripinfo_EW_wakeup_moto.0 routing_EW_wakeup_moto.0" vType="motorcycle" speedFactor="0.97" vaporized=""/>
    <tripinfo id="WE_wakeup_bus.0" depart="33.00" departLane="-E6_0" departPos="12.10" departSpeed="0.00" departDelay="0.00" arrival="84.00" arrivalLane="E5_0" arrivalPos="89.60" arrivalSpeed="8.20" duration="51.00" routeLength="187.90" waitingTime="18.00" waitingCount="1" stopTime="0.00" timeLoss="28.43" rerouteNo="0" devices="vehroute_WE_wakeup_bus.0 tripinfo_WE_wakeup_bus.0 routing_WE_wakeup_bus.0" vType="bus" speedFactor="1.00" vaporized=""/>
    <tripinfo id="WE_wakeup_moto.0" depart="77.00" departLane="-E6_0" departPos="2.10" departSpeed="0.00" departDelay="0.00" arrival="96.00" arrivalLane="E5_0" arrivalPos="89.60" arrivalSpeed="11.25" duration="19.00" routeLength="197.90" waitingTime="0.00" waitingCount="0" stopTime="0.00" timeLoss="3.05" rerouteNo="0" devices="vehroute_WE_wakeup_moto.0 tripinfo_WE_wakeup_moto.0 routing_WE_wakeup_moto.0" vType="motorcycle" speedFactor="0.94" vaporized=""/>
    <tripinfo id="SN_wakeup_car_right.0" depart="82.00" departLane="-E8_0" departPos="4.60" departSpeed="0.00" departDelay="0.00" arrival="110.00" arrivalLane="E5_0" arrivalPos="89.60" arrivalSpeed="12.78" duration="28.00" routeLength="183.63" waitingTime="6.00" waitingCount="1" stopTime="0.00" timeLoss="13.30" rerouteNo="0" devices="vehroute_SN_wakeup_car_right.0 tripinfo_SN_wakeup_car_right.0 routing_SN_wakeup_car_right.0" vType="car" speedFactor="0.96" vaporized=""/>
    <tripinfo id="WE_wakeup_car_left.0" depart="27.00" departLane="-E6_0" departPos="4.60" departSpeed="0.00" departDelay="0.00" arrival="111.00" arrivalLane="E7_1" arrivalPos="89.60" arrivalSpeed="12.30" duration="84.00" routeLength="193.95" waitingTime="59.00" waitingCount="1" stopTime="0.00" timeLoss="68.09" rerouteNo="0" devices="vehroute_WE_wakeup_car_left.0 tripinfo_WE_wakeup_car_left.0 routing_WE_wakeup_car_left.0" vType="car" speedFactor="0.92" vaporized=""/>
    <tripinfo id="WE_wakeup_car_left.1" depart="51.00" departLane="-E6_0" departPos="4.60" departSpeed="0.00" departDelay="0.00" arrival="114.00" arrivalLane="E7_1" arrivalPos="89.60" arrivalSpeed="11.66" duration="63.00" routeLength="193.95" waitingTime="37.00" waitingCount="1" stopTime="0.00" timeLoss="45.84" rerouteNo="0" devices="vehroute_WE_wakeup_car_left.1 tripinfo_WE_wakeup_car_left.1 routing_WE_wakeup_car_left.1" vType="car" speedFactor="0.89" vaporized=""/>
    <tripinfo id="NS_wakeup_car.0" depart="51.00" departLane="-E7_0" departPos="4.60" departSpeed="0.00" departDelay="0.00" arrival="129.00" arrivalLane="E8_0" arrivalPos="89.60" arrivalSpeed="13.14" duration="78.00" routeLength="195.40" waitingTime="55.00" waitingCount="1" stopTime="0.00" timeLoss="63.13" rerouteNo="0" devices="vehroute_NS_wakeup_car.0 tripinfo_NS_wakeup_car.0 routing_NS_wakeup_car.0" vType="car" speedFactor="1.02" vaporized=""/>
    <tripinfo id="NS_wakeup_car.1" depart="86.00" departLane="-E7_0" departPos="4.60" departSpeed="0.00" departDelay="0.00" arrival="131.00" arrivalLane="E8_1" arrivalPos="89.60" arrivalSpeed="10.10" duration="45.00" routeLength="195.40" waitingTime="17.00" waitingCount="1" stopTime="0.00" timeLoss="26.40" rerouteNo="0" devices="vehroute_NS_wakeup_car.1 tripinfo_NS_wakeup_car.1 routing_NS_wakeup_car.1" vType="car" speedFactor="0.77" vaporized=""/>
    <tripinfo id="NS_wakeup_moto_right.0" depart="128.00" departLane="-E7_0" departPos="2.10" departSpeed="0.00" departDelay="0.00" arrival="148.00" arrivalLane="E6_0" arrivalPos="89.60" arrivalSpeed="12.74" duration="20.00" routeLength="186.13" waitingTime="0.00" waitingCount="0" stopTime="0.00" timeLoss="5.92" rerouteNo="0" devices="vehroute_NS_wakeup_moto_right.0 tripinfo_NS_wakeup_moto_right.0 routing_NS_wakeup_moto_right.0" vType="motorcycle" speedFactor="0.99" vaporized=""/>
    <tripinfo id="SN_wakeup_moto.0" depart="137.00" departLane="-E8_0" departPos="2.10" departSpeed="0.00" departDelay="0.00" arrival="155.00" arrivalLane="E7_0" arrivalPos="89.60" arrivalSpeed="12.71" duration="18.00" routeLength="197.90" waitingTime="0.00" waitingCount="0" stopTime="0.00" timeLoss="3.55" rerouteNo="0" devices="vehroute_SN_wakeup_moto.0 tripinfo_SN_wakeup_moto.0 routing_SN_wakeup_moto.0" vType="motorcycle" speedFactor="1.11" vaporized=""/>
    <tripinfo id="NS_wakeup_car_right.0" depart="157.00" departLane="-E7_0" departPos="4.60" departSpeed="0.00" departDelay="0.00" arrival="177.00" arrivalLane="E6_0" arrivalPos="89.60" arrivalSpeed="13.12" duration="20.00" routeLength="183.63" waitingTime="0.00" waitingCount="0" stopTime="0.00" timeLoss="5.32" rerouteNo="0" devices="vehroute_NS_wakeup_car_right.0 tripinfo_NS_wakeup_car_right.0 routing_NS_wakeup_car_right.0" vType="car" speedFactor="0.95" vaporized=""/>
    <tripinfo id="WE_wakeup_moto.1" depart="152.00" departLane="-E6_0" departPos="2.10" departSpeed="0.00" departDelay="0.00" arrival="196.00" arrivalLane="E5_0" arrivalPos="89.60" arrivalSpeed="13.85" duration="44.00" routeLength="197.90" waitingTime="21.00" waitingCount="1" stopTime="0.00" timeLoss="29.26" rerouteNo="0" devices="vehroute_WE_wakeup_moto.1 tripinfo_WE_wakeup_moto.1 routing_WE_wakeup_moto.1" vType="motorcycle" speedFactor="1.05" vaporized=""/>
    <tripinfo id="WE_wakeup_car.0" depart="184.00" departLane="-E6_0" departPos="4.60" departSpeed="0.00" departDelay="0.00" arrival="204.00" arrivalLane="E5_0" arrivalPos="89.60" arrivalSpeed="10.90" duration="20.00" routeLength="195.40" waitingTime="0.00" waitingCount="0" stopTime="0.00" timeLoss="3.00" rerouteNo="0" devices="vehroute_WE_wakeup_car.0 tripinfo_WE_wakeup_car.0 routing_WE_wakeup_car.0" vType="car" speedFactor="0.87" vaporized=""/>
    <tripinfo id="WE_wakeup_car.1" depart="187.00" departLane="-E6_0" departPos="4.60" departSpeed="0.00" departDelay="1.00" arrival="206.00" arrivalLane="E5_0" arrivalPos="89.60" arrivalSpeed="12.63" duration="19.00" routeLength="195.40" waitingTime="0.00" waitingCount="0" stopTime="0.00" timeLoss="3.84" rerouteNo="0" devices="vehroute_WE_wakeup_car.1 tripinfo_WE_wakeup_car.1 routing_WE_wakeup_car.1" vType="car" speedFactor="0.98" vaporized=""/>
    <tripinfo id="NS_wakeup_moto_right.1" depart="183.00" departLane="-E7_0" departPos="2.10" departSpeed="0.00" departDelay="0.00" arrival="228.00" arrivalLane="E6_0" arrivalPos="89.60" arrivalSpeed="12.38" duration="45.00" routeLength="186.13" waitingTime="20.00" waitingCount="1" stopTime="0.00" timeLoss="30.49" rerouteNo="0" devices="vehroute_NS_wakeup_moto_right.1 tripinfo_NS_wakeup_moto_right.1 routing_NS_wakeup_moto_right.1" vType="motorcycle" speedFactor="1.14" vaporized=""/>
    <tripinfo id="EW_wakeup_car_left.0" depart="146.00" departLane="-E5_0" departPos="4.60" departSpeed="0.00" departDelay="0.00" arrival="229.00" arrivalLane="E8_1" arrivalPos="89.60" arrivalSpeed="12.50" duration="83.00" routeLength="193.95" waitingTime="58.00" waitingCount="1" stopTime="0.00" timeLoss="68.11" rerouteNo="0" devices="vehroute_EW_wakeup_car_left.0 tripinfo_EW_wakeup_car_left.0 routing_EW_wakeup_car_left.0" vType="car" speedFactor="0.98" vaporized=""/>
    <tripinfo id="SN_wakeup_car_right.1" depart="220.00" departLane="-E8_0" departPos="4.60" departSpeed="0.00" departDelay="0.00" arrival="240.00" arrivalLane="E5_0" arrivalPos="89.60" arrivalSpeed="12.74" duration="20.00" routeLength="183.63" waitingTime="0.00" waitingCount="0" stopTime="0.00" timeLoss="5.52" rerouteNo="0" devices="vehroute_SN_wakeup_car_right.1 tripinfo_SN_wakeup_car_right.1 routing_SN_wakeup_car_right.1" vType="car" speedFactor="1.06" vaporized=""/>
    <tripinfo id="WE_wakeup_moto_left.0" depart="221.00" departLane="-E6_0" departPos="2.10" departSpeed="0.00" departDelay="0.00" arrival="241.00" arrivalLane="E7_1" arrivalPos="89.60" arrivalSpeed="12.30" duration="20.00" routeLength="196.45" waitingTime="0.00" waitingCount="0" stopTime="0.00" timeLoss="5.16" rerouteNo="0" devices="vehroute_WE_wakeup_moto_left.0 tripinfo_WE_wakeup_moto_left.0 routing_WE_wakeup_moto_left.0" vType="motorcycle" speedFactor="1.01" vaporized=""/>
    <tripinfo id="NS_wakeup_moto.0" depart="209.00" departLane="-E7_0" departPos="2.10" departSpeed="0.00" departDelay="0.00" arrival="247.00" arrivalLane="E8_0" arrivalPos="89.60" arrivalSpeed="12.30" duration="38.00" routeLength="197.90" waitingTime="14.00" waitingCount="1" stopTime="0.00" timeLoss="23.24" rerouteNo="0" devices="vehroute_NS_wakeup_moto.0 tripinfo_NS_wakeup_moto.0 routing_NS_wakeup_moto.0" vType="motorcycle" speedFactor="1.03" vaporized=""/>
    <tripinfo id="EW_wakeup_truck.0" depart="236.00" departLane="-E5_0" departPos="7.10" departSpeed="0.00" departDelay="0.00" arrival="317.00" arrivalLane="E6_0" arrivalPos="89.60" arrivalSpeed="10.93" duration="81.00" routeLength="192.90" waitingTime="53.00" waitingCount="1" stopTime="0.00" timeLoss="63.13" rerouteNo="0" devices="vehroute_EW_wakeup_truck.0 tripinfo_EW_wakeup_truck.0 routing_EW_wakeup_truck.0" vType="truck" speedFactor="1.04" vaporized=""/>
    <tripinfo id="EW_wakeup_moto_right.0" depart="261.00" departLane="-E5_0" departPos="2.10" departSpeed="0.00" departDelay="0.00" arrival="317.00" arrivalLane="E7_0" arrivalPos="89.60" arrivalSpeed="13.11" duration="56.00" routeLength="186.13" waitingTime="30.00" waitingCount="1" stopTime="0.00" timeLoss="41.82" rerouteNo="0" devices="vehroute_EW_wakeup_moto_right.0 tripinfo_EW_wakeup_moto_right.0 routing_EW_wakeup_moto_right.0" vType="motorcycle" speedFactor="1.07" vaporized=""/>
    <tripinfo id="WE_wakeup_truck.0" depart="261.00" departLane="-E6_0" departPos="7.10" departSpeed="0.00" departDelay="0.00" arrival="317.00" arrivalLane="E5_0" arrivalPos="89.60" arrivalSpeed="11.01" duration="56.00" routeLength="192.90" waitingTime="27.00" waitingCount="1" stopTime="0.00" timeLoss="38.21" rerouteNo="0" devices="vehroute_WE_wakeup_truck.0 tripinfo_WE_wakeup_truck.0 routing_WE_wakeup_truck.0" vType="truck" speedFactor="0.94" vaporized=""/>
    <tripinfo id="EW_wakeup_car_right.0" depart="278.00" departLane="-E5_0" departPos="4.60" departSpeed="0.00" departDelay="0.00" arrival="319.00" arrivalLane="E7_0" arrivalPos="89.60" arrivalSpeed="12.82" duration="41.00" routeLength="183.63" waitingTime="15.00" waitingCount="1" stopTime="0.00" timeLoss="26.41" rerouteNo="0" devices="vehroute_EW_wakeup_car_right.0 tripinfo_EW_wakeup_car_right.0 routing_EW_wakeup_car_right.0" vType="car" speedFactor="0.95" vaporized=""/>
    <tripinfo id="WE_wakeup_car_left.2" depart="244.00" departLane="-E6_0" departPos="4.60" departSpeed="0.00" departDelay="0.00" arrival="346.00" arrivalLane="E7_1" arrivalPos="89.60" arrivalSpeed="13.54" duration="102.00" routeLength="193.95" waitingTime="78.00" waitingCount="1" stopTime="0.00" timeLoss="87.76" rerouteNo="0" devices="vehroute_WE_wakeup_car_left.2 tripinfo_WE_wakeup_car_left.2 routing_WE_wakeup_car_left.2" vType="car" speedFactor="1.16" vaporized=""/>
    <tripinfo id="EW_wakeup_moto_left.0" depart="268.00" departLane="-E5_0" departPos="2.10" departSpeed="0.00" departDelay="0.00" arrival="347.00" arrivalLane="E8_1" arrivalPos="89.60" arrivalSpeed="12.83" duration="79.00" routeLength="196.45" waitingTime="56.00" waitingCount="1" stopTime="0.00" timeLoss="63.18" rerouteNo="0" devices="vehroute_EW_wakeup_moto_left.0 tripinfo_EW_wakeup_moto_left.0 routing_EW_wakeup_moto_left.0" vType="motorcycle" speedFactor="0.98" vaporized=""/>
    <tripinfo id="NS_wakeup_moto.1" depart="309.00" departLane="-E7_0" departPos="2.10" departSpeed="0.00" departDelay="0.00" arrival="364.00" arrivalLane="E8_0" arrivalPos="89.60" arrivalSpeed="12.14" duration="55.00" routeLength="197.90" waitingTime="32.00" waitingCount="1" stopTime="0.00" timeLoss="40.72" rerouteNo="0" devices="vehroute_NS_wakeup_moto.1 tripinfo_NS_wakeup_moto.1 routing_NS_wakeup_moto.1" vType="motorcycle" speedFactor="1.04" vaporized=""/>
    <tripinfo id="SN_wakeup_car.2" depart="277.00" departLane="-E8_0" departPos="4.60" departSpeed="0.00" departDelay="0.00" arrival="366.00" arrivalLane="E7_1" arrivalPos="89.60" arrivalSpeed="12.13" duration="89.00" routeLength="195.40" waitingTime="63.00" waitingCount="1" stopTime="0.00" timeLoss="72.70" rerouteNo="0" devices="vehroute_SN_wakeup_car.2 tripinfo_SN_wakeup_car.2 routing_SN_wakeup_car.2" vType="car" speedFactor="0.90" vaporized=""/>
    <tripinfo id="NS_wakeup_car.2" depart="328.00" departLane="-E7_0" departPos="4.60" departSpeed="0.00" departDelay="0.00" arrival="367.00" arrivalLane="E8_0" arrivalPos="89.60" arrivalSpeed="13.12" duration="39.00" routeLength="195.40" waitingTime="13.00" waitingCount="1" stopTime="0.00" timeLoss="23.84" rerouteNo="0" devices="vehroute_NS_wakeup_car.2 tripinfo_NS_wakeup_car.2 routing_NS_wakeup_car.2" vType="car" speedFactor="0.97" vaporized=""/>
    <tripinfo id="SN_wakeup_truck.0" depart="321.00" departLane="-E8_0" departPos="7.10" departSpeed="0.00" departDelay="0.00" arrival="369.00" arrivalLane="E7_1" arrivalPos="89.60" arrivalSpeed="10.67" duration="48.00" routeLength="192.90" waitingTime="19.00" waitingCount="1" stopTime="0.00" timeLoss="30.52" rerouteNo="0" devices="vehroute_SN_wakeup_truck.0 tripinfo_SN_wakeup_truck.0 routing_SN_wakeup_truck.0" vType="truck" speedFactor="0.92" vaporized=""/>
    <tripinfo id="SN_wakeup_bus.0" depart="268.00" departLane="-E8_0" departPos="12.10" departSpeed="0.00" departDelay="0.00" arrival="371.00" arrivalLane="E7_0" arrivalPos="89.60" arrivalSpeed="8.28" duration="103.00" routeLength="187.90" waitingTime="70.00" waitingCount="1" stopTime="0.00" timeLoss="80.22" rerouteNo="0" devices="vehroute_SN_wakeup_bus.0 tripinfo_SN_wakeup_bus.0 routing_SN_wakeup_bus.0" vType="bus" speedFactor="1.00" vaporized=""/>
    <tripinfo id="NS_wakeup_truck.1" depart="366.00" departLane="-E7_0" departPos="7.10" departSpeed="0.00" departDelay="0.00" arrival="388.00" arrivalLane="E8_0" arrivalPos="89.60" arrivalSpeed="11.06" duration="22.00" routeLength="192.90" waitingTime="0.00" waitingCount="0" stopTime="0.00" timeLoss="4.07" rerouteNo="0" devices="vehroute_NS_wakeup_truck.1 tripinfo_NS_wakeup_truck.1 routing_NS_wakeup_truck.1" vType="truck" speedFactor="1.01" vaporized=""/>
    <tripinfo id="SN_wakeup_car.3" depart="385.00" departLane="-E8_0" departPos="4.60" departSpeed="0.00" departDelay="0.00" arrival="404.00" arrivalLane="E7_0" arrivalPos="89.60" arrivalSpeed="12.42" duration="19.00" routeLength="195.40" waitingTime="0.00" waitingCount="0" stopTime="0.00" timeLoss="3.62" rerouteNo="0" devices="vehroute_SN_wakeup_car.3 tripinfo_SN_wakeup_car.3 routing_SN_wakeup_car.3" vType="car" speedFactor="0.94" vaporized=""/>
    <tripinfo id="NS_wakeup_car.3" depart="388.00" departLane="-E7_0" departPos="4.60" departSpeed="0.00" departDelay="0.00" arrival="407.00" arrivalLane="E8_0" arrivalPos="89.60" arrivalSpeed="12.27" duration="19.00" routeLength="195.40" waitingTime="0.00" waitingCount="0" stopTime="0.00" timeLoss="3.29" rerouteNo="0" devices="vehroute_NS_wakeup_car.3 tripinfo_NS_wakeup_car.3 routing_NS_wakeup_car.3" vType="car" speedFactor="0.90" vaporized=""/>
    <tripinfo id="NS_wakeup_car_left.0" depart="307.00" departLane="-E7_0" departPos="4.60" departSpeed="0.00" departDelay="0.00" arrival="414.00" arrivalLane="E5_1" arrivalPos="89.60" arrivalSpeed="13.23" duration="107.00" routeLength="193.95" waitingTime="84.00" waitingCount="1" stopTime="0.00" timeLoss="91.97" rerouteNo="0" devices="vehroute_NS_wakeup_car_left.0 tripinfo_NS_wakeup_car_left.0 routing_NS_wakeup_car_left.0" vType="car" speedFactor="1.03" vaporized=""/>
    <tripinfo id="SN_wakeup_car_left.0" depart="344.00" departLane="-E8_0" departPos="4.60" departSpeed="0.00" departDelay="0.00" arrival="414.00" arrivalLane="E6_1" arrivalPos="89.60" arrivalSpeed="13.33" duration="70.00" routeLength="193.95" waitingTime="41.00" waitingCount="2" stopTime="0.00" timeLoss="55.55" rerouteNo="0" devices="vehroute_SN_wakeup_car_left.0 tripinfo_SN_wakeup_car_left.0 routing_SN_wakeup_car_left.0" vType="car" speedFactor="1.07" vaporized=""/>
    <tripinfo id="NS_wakeup_car_left.1" depart="398.00" departLane="-E7_0" departPos="4.60" departSpeed="0.00" departDelay="0.00" arrival="419.00" arrivalLane="E5_1" arrivalPos="89.60" arrivalSpeed="12.70" duration="21.00" routeLength="193.95" waitingTime="0.00" waitingCount="0" stopTime="0.00" timeLoss="5.03" rerouteNo="0" devices="vehroute_NS_wakeup_car_left.1 tripinfo_NS_wakeup_car_left.1 routing_NS_wakeup_car_left.1" vType="car" speedFactor="0.95" vaporized=""/>
    <tripinfo id="WE_wakeup_car.2" depart="415.00" departLane="-E6_0" departPos="4.60" departSpeed="0.00" departDelay="0.00" arrival="434.00" arrivalLane="E5_0" arrivalPos="89.60" arrivalSpeed="13.55" duration="19.00" routeLength="195.40" waitingTime="0.00" waitingCount="0" stopTime="0.00" timeLoss="4.02" rerouteNo="0" devices="vehroute_WE_wakeup_car.2 tripinfo_WE_wakeup_car.2 routing_WE_wakeup_car.2" vType="car" speedFactor="1.02" vaporized=""/>
    <tripinfo id="EW_wakeup_car.0" depart="421.00" departLane="-E5_0" departPos="4.60" departSpeed="0.00" departDelay="0.00" arrival="441.00" arrivalLane="E6_0" arrivalPos="89.60" arrivalSpeed="12.40" duration="20.00" routeLength="195.40" waitingTime="0.00" waitingCount="0" stopTime="0.00" timeLoss="3.89" rerouteNo="0" devices="vehroute_EW_wakeup_car.0 tripinfo_EW_wakeup_car.0 routing_EW_wakeup_car.0" vType="car" speedFactor="0.93" vaporized=""/>
    <tripinfo id="EW_wakeup_car.1" depart="426.00" departLane="-E5_0" departPos="4.60" departSpeed="0.00" departDelay="0.00" arrival="445.00" arrivalLane="E6_0" arrivalPos="89.60" arrivalSpeed="12.45" duration="19.00" routeLength="195.40" waitingTime="0.00" waitingCount="0" stopTime="0.00" timeLoss="3.84" rerouteNo="0" devices="vehroute_EW_wakeup_car.1 tripinfo_EW_wakeup_car.1 routing_EW_wakeup_car.1" vType="car" speedFactor="0.93" vaporized=""/>
    <tripinfo id="NS_wakeup_moto_right.2" depart="425.00" departLane="-E7_0" departPos="2.10" departSpeed="0.00" departDelay="0.00" arrival="464.00" arrivalLane="E6_0" arrivalPos="89.60" arrivalSpeed="12.19" duration="39.00" routeLength="186.13" waitingTime="16.00" waitingCount="1" stopTime="0.00" timeLoss="24.91" rerouteNo="0" devices="vehroute_NS_wakeup_moto_right.2 tripinfo_NS_wakeup_moto_right.2 routing_NS_wakeup_moto_right.2" vType="motorcycle" speedFactor="1.09" vaporized=""/>
    <tripinfo id="SN_wakeup_car.4" depart="398.00" departLane="-E8_0" departPos="4.60" departSpeed="0.00" departDelay="0.00" arrival="483.00" arrivalLane="E7_0" arrivalPos="89.60" arrivalSpeed="12.70" duration="85.00" routeLength="195.40" waitingTime="61.00" waitingCount="1" stopTime="0.00" timeLoss="70.26" rerouteNo="0" devices="vehroute_SN_wakeup_car.4 tripinfo_SN_wakeup_car.4 routing_SN_wakeup_car.4" vType="car" speedFactor="1.08" vaporized=""/>
    <tripinfo id="NS_wakeup_truck.2" depart="504.00" departLane="-E7_0" departPos="7.10" departSpeed="0.00" departDelay="0.00" arrival="527.00" arrivalLane="E8_0" arrivalPos="89.60" arrivalSpeed="11.09" duration="23.00" routeLength="192.90" waitingTime="0.00" waitingCount="0" stopTime="0.00" timeLoss="4.84" rerouteNo="0" devices="vehroute_NS_wakeup_truck.2 tripinfo_NS_wakeup_truck.2 routing_NS_wakeup_truck.2" vType="truck" speedFactor="0.99" vaporized=""/>
    <tripinfo id="NS_wakeup_moto_right.3" depart="520.00" departLane="-E7_0" departPos="2.10" departSpeed="0.00" departDelay="0.00" arrival="540.00" arrivalLane="E6_0" arrivalPos="89.60" arrivalSpeed="12.69" duration="20.00" routeLength="186.13" waitingTime="0.00" waitingCount="0" stopTime="0.00" timeLoss="5.82" rerouteNo="0" devices="vehroute_NS_wakeup_moto_right.3 tripinfo_NS_wakeup_moto_right.3 routing_NS_wakeup_moto_right.3" vType="motorcycle" speedFactor="0.99" vaporized=""/>
    <tripinfo id="SN_wakeup_car_right.2" depart="524.00" departLane="-E8_0" departPos="4.60" departSpeed="0.00" departDelay="0.00" arrival="543.00" arrivalLane="E5_0" arrivalPos="89.60" arrivalSpeed="12.87" duration="19.00" routeLength="183.63" waitingTime="0.00" waitingCount="0" stopTime="0.00" timeLoss="5.27" rerouteNo="0" devices="vehroute_SN_wakeup_car_right.2 tripinfo_SN_wakeup_car_right.2 routing_SN_wakeup_car_right.2" vType="car" speedFactor="1.08" vaporized=""/>
    <tripinfo id="WE_wakeup_car.3" depart="457.00" departLane="-E6_0" departPos="4.60" departSpeed="0.00" departDelay="0.00" arrival="550.00" arrivalLane="E5_0" arrivalPos="89.60" arrivalSpeed="12.52" duration="93.00" routeLength="195.40" waitingTime="70.00" waitingCount="1" stopTime="0.00" timeLoss="78.42" rerouteNo="0" devices="vehroute_WE_wakeup_car.3 tripinfo_WE_wakeup_car.3 routing_WE_wakeup_car.3" vType="car" speedFactor="0.99" vaporized=""/>
    <tripinfo id="EW_wakeup_car.2" depart="487.00" departLane="-E5_0" departPos="4.60" departSpeed="0.00" departDelay="0.00" arrival="550.00" arrivalLane="E6_0" arrivalPos="89.60" arrivalSpeed="13.57" duration="63.00" routeLength="195.40" waitingTime="40.00" waitingCount="1" stopTime="0.00" timeLoss="47.69" rerouteNo="0" devices="vehroute_EW_wakeup_car.2 tripinfo_EW_wakeup_car.2 routing_EW_wakeup_car.2" vType="car" speedFactor="0.98" vaporized=""/>
    <tripinfo id="WE_wakeup_car.4" depart="543.00" departLane="-E6_0" departPos="4.60" departSpeed="0.00" departDelay="0.00" arrival="562.00" arrivalLane="E5_0" arrivalPos="89.60" arrivalSpeed="11.96" duration="19.00" routeLength="195.40" waitingTime="0.00" waitingCount="0" stopTime="0.00" timeLoss="3.23" rerouteNo="0" devices="vehroute_WE_wakeup_car.4 tripinfo_WE_wakeup_car.4 routing_WE_wakeup_car.4" vType="car" speedFactor="0.94" vaporized=""/>
    <tripinfo id="NS_wakeup_moto.2" depart="585.00" departLane="-E7_0" departPos="2.10" departSpeed="0.00" departDelay="0.00" arrival="605.00" arrivalLane="E8_0" arrivalPos="89.60" arrivalSpeed="12.33" duration="20.00" routeLength="197.90" waitingTime="0.00" waitingCount="0" stopTime="0.00" timeLoss="4.89" rerouteNo="0" devices="vehroute_NS_wakeup_moto.2 tripinfo_NS_wakeup_moto.2 routing_NS_wakeup_moto.2" vType="motorcycle" speedFactor="1.05" vaporized=""/>
    <tripinfo id="SN_wakeup_car_right.3" depart="626.00" departLane="-E8_0" departPos="4.60" departSpeed="0.00" departDelay="0.00" arrival="650.00" arrivalLane="E5_0" arrivalPos="89.60" arrivalSpeed="11.31" duration="24.00" routeLength="183.63" waitingTime="0.00" waitingCount="0" stopTime="0.00" timeLoss="7.25" rerouteNo="0" devices="vehroute_SN_wakeup_car_right.3 tripinfo_SN_wakeup_car_right.3 routing_SN_wakeup_car_right.3" vType="car" speedFactor="0.85" vaporized=""/>
    <tripinfo id="WE_wakeup_car.6" depart="645.00" departLane="-E6_0" departPos="4.60" departSpeed="0.00" departDelay="0.00" arrival="666.00" arrivalLane="E5_1" arrivalPos="89.60" arrivalSpeed="13.76" duration="21.00" routeLength="195.40" waitingTime="0.00" waitingCount="0" stopTime="0.00" timeLoss="6.80" rerouteNo="0" devices="vehroute_WE_wakeup_car.6 tripinfo_WE_wakeup_car.6 routing_WE_wakeup_car.6" vType="car" speedFactor="1.02" vaporized=""/>
    <tripinfo id="WE_wakeup_car.5" depart="581.00" departLane="-E6_0" departPos="4.60" departSpeed="0.00" departDelay="0.00" arrival="668.00" arrivalLane="E5_0" arrivalPos="89.60" arrivalSpeed="12.54" duration="87.00" routeLength="195.40" waitingTime="62.00" waitingCount="1" stopTime="0.00" timeLoss="71.59" rerouteNo="0" devices="vehroute_WE_wakeup_car.5 tripinfo_WE_wakeup_car.5 routing_WE_wakeup_car.5" vType="car" speedFactor="0.92" vaporized=""/>
    <tripinfo id="EW_wakeup_car_right.1" depart="641.00" departLane="-E5_0" departPos="4.60" departSpeed="0.00" departDelay="0.00" arrival="673.00" arrivalLane="E7_0" arrivalPos="89.60" arrivalSpeed="11.95" duration="32.00" routeLength="183.63" waitingTime="6.00" waitingCount="1" stopTime="0.00" timeLoss="16.78" rerouteNo="0" devices="vehroute_EW_wakeup_car_right.1 tripinfo_EW_wakeup_car_right.1 routing_EW_wakeup_car_right.1" vType="car" speedFactor="0.94" vaporized=""/>
    <tripinfo id="EW_wakeup_bus.0" depart="585.00" departLane="-E5_0" departPos="12.10" departSpeed="0.00" departDelay="0.00" arrival="674.00" arrivalLane="E6_0" arrivalPos="89.60" arrivalSpeed="8.21" duration="89.00" routeLength="187.90" waitingTime="56.00" waitingCount="1" stopTime="0.00" timeLoss="66.28" rerouteNo="0" devices="vehroute_EW_wakeup_bus.0 tripinfo_EW_wakeup_bus.0 routing_EW_wakeup_bus.0" vType="bus" speedFactor="1.00" vaporized=""/>
    <tripinfo id="WE_wakeup_moto_right.0" depart="683.00" departLane="-E6_0" departPos="2.10" departSpeed="0.00" departDelay="0.00" arrival="704.00" arrivalLane="E8_0" arrivalPos="89.60" arrivalSpeed="12.99" duration="21.00" routeLength="186.13" waitingTime="0.00" waitingCount="0" stopTime="0.00" timeLoss="5.84" rerouteNo="0" devices="vehroute_WE_wakeup_moto_right.0 tripinfo_WE_wakeup_moto_right.0 routing_WE_wakeup_moto_right.0" vType="motorcycle" speedFactor="0.96" vaporized=""/>
    <tripinfo id="NS_wakeup_moto.3" depart="659.00" departLane="-E7_0" departPos="2.10" departSpeed="0.00" departDelay="0.00" arrival="719.00" arrivalLane="E8_0" arrivalPos="89.60" arrivalSpeed="13.83" duration="60.00" routeLength="197.90" waitingTime="36.00" waitingCount="1" stopTime="0.00" timeLoss="44.95" rerouteNo="0" devices="vehroute_NS_wakeup_moto.3 tripinfo_NS_wakeup_moto.3 routing_NS_wakeup_moto.3" vType="motorcycle" speedFactor="1.04" vaporized=""/>
    <tripinfo id="NS_wakeup_truck.3" depart="642.00" departLane="-E7_0" departPos="7.10" departSpeed="0.00" departDelay="0.00" arrival="722.00" arrivalLane="E8_0" arrivalPos="89.60" arrivalSpeed="10.98" duration="80.00" routeLength="192.90" waitingTime="51.00" waitingCount="1" stopTime="0.00" timeLoss="61.78" rerouteNo="0" devices="vehroute_NS_wakeup_truck.3 tripinfo_NS_wakeup_truck.3 routing_NS_wakeup_truck.3" vType="truck" speedFactor="0.99" vaporized=""/>
    <tripinfo id="NS_wakeup_moto_right.4" depart="703.00" departLane="-E7_0" departPos="2.10" departSpeed="0.00" departDelay="0.00" arrival="723.00" arrivalLane="E6_0" arrivalPos="89.60" arrivalSpeed="12.89" duration="20.00" routeLength="186.13" waitingTime="0.00" waitingCount="0" stopTime="0.00" timeLoss="5.54" rerouteNo="0" devices="vehroute_NS_wakeup_moto_right.4 tripinfo_NS_wakeup_moto_right.4 routing_NS_wakeup_moto_right.4" vType="motorcycle" speedFactor="0.99" vaporized=""/>
    <tripinfo id="NS_wakeup_delivery.0" depart="720.00" departLane="-E7_0" departPos="6.10" departSpeed="0.00" departDelay="0.00" arrival="744.00" arrivalLane="E8_0" arrivalPos="89.60" arrivalSpeed="9.71" duration="24.00" routeLength="193.90" waitingTime="0.00" waitingCount="0" stopTime="0.00" timeLoss="3.58" rerouteNo="0" devices="vehroute_NS_wakeup_delivery.0 tripinfo_NS_wakeup_delivery.0 routing_NS_wakeup_delivery.0" vType="delivery" speedFactor="0.94" vaporized=""/>