<?xml version="1.0" encoding="UTF-8"?>

<!-- generated on 2025-05-23 21:13:23 by Eclipse SUMO GUI Version 1.22.0
<sumoConfiguration xmlns:xsi="http://www.w3.org/2001/XMLSchema-instance" xsi:noNamespaceSchemaLocation="http://sumo.dlr.de/xsd/sumoConfiguration.xsd">

    <input>
        <net-file value="app/cross.net.xml"/>
        <route-files value="app/vehicles.rou.xml"/>
    </input>

    <output>
        <queue-output value="app/statistiche/queue.xml"/>
        <summary-output value="app/statistiche/summary.xml"/>
        <tripinfo-output value="app/statistiche/tripinfo.xml"/>
        <vehroute-output value="app/statistiche/vehroute.xml"/>
    </output>

    <time>
        <begin value="0"/>
        <end value="86400"/>
    </time>

    <processing>
        <collision.action value="warn"/>
        <collision.stoptime value="1800"/>
        <collision.check-junctions value="true"/>
        <time-to-teleport value="-1"/>
    </processing>

    <report>
        <no-warnings value="true"/>
    </report>

    <traci_server>
        <remote-port value="60171"/>
    </traci_server>

    <random_number>
        <random value="true"/>
        <seed value="1742988170"/>
    </random_number>

    <gui_only>
        <gui-settings-file value="app/view.port.xml"/>
        <start value="true"/>
        <delay value="100"/>
    </gui_only>

</sumoConfiguration>
-->

<tripinfos xmlns:xsi="http://www.w3.org/2001/XMLSchema-instance" xsi:noNamespaceSchemaLocation="http://sumo.dlr.de/xsd/tripinfo_file.xsd">
    <tripinfo id="NS_wakeup_car.0" depart="58.00" departLane="-E7_1" departPos="4.60" departSpeed="0.00" departDelay="0.00" arrival="101.00" arrivalLane="E8_1" arrivalPos="89.60" arrivalSpeed="13.34" duration="43.00" routeLength="195.40" waitingTime="20.00" waitingCount="1" stopTime="0.00" timeLoss="28.23" rerouteNo="0" devices="vehroute_NS_wakeup_car.0 tripinfo_NS_wakeup_car.0 routing_NS_wakeup_car.0" vType="car" speedFactor="1.13" vaporized=""/>
    <tripinfo id="SN_wakeup_car.0" depart="109.00" departLane="-E8_1" departPos="4.60" departSpeed="0.00" departDelay="0.00" arrival="127.00" arrivalLane="E7_1" arrivalPos="89.60" arrivalSpeed="13.34" duration="18.00" routeLength="195.40" waitingTime="0.00" waitingCount="0" stopTime="0.00" timeLoss="3.59" rerouteNo="0" devices="vehroute_SN_wakeup_car.0 tripinfo_SN_wakeup_car.0 routing_SN_wakeup_car.0" vType="car" speedFactor="1.00" vaporized=""/>
    <personinfo id="ped_EW.0" depart="0.00" type="DEFAULT_PEDTYPE" speedFactor="0.96" duration="130.00" waitingTime="0.00" timeLoss="13.03" traveltime="130.00">
        <walk depart="0.00" departPos="0.00" arrival="130.00" arrivalPos="44.80" duration="130.00" routeLength="155.69" timeLoss="13.03" maxSpeed="1.33"/>
    </personinfo>
    <personinfo id="ped_SN.0" depart="0.00" type="DEFAULT_PEDTYPE" speedFactor="1.13" duration="134.00" waitingTime="0.00" timeLoss="34.62" traveltime="134.00">
        <walk depart="0.00" departPos="0.00" arrival="134.00" arrivalPos="44.80" duration="134.00" routeLength="155.69" timeLoss="34.62" maxSpeed="1.57"/>
    </personinfo>
    <personinfo id="ped_NS.0" depart="0.00" type="DEFAULT_PEDTYPE" speedFactor="1.01" duration="138.00" waitingTime="0.00" timeLoss="27.03" traveltime="138.00">
        <walk depart="0.00" departPos="0.00" arrival="138.00" arrivalPos="44.80" duration="138.00" routeLength="155.69" timeLoss="27.03" maxSpeed="1.40"/>
    </personinfo>
    <tripinfo id="NS_wakeup_car.1" depart="117.00" departLane="-E7_1" departPos="4.60" departSpeed="0.00" departDelay="0.00" arrival="138.00" arrivalLane="E8_1" arrivalPos="89.60" arrivalSpeed="10.66" duration="21.00" routeLength="195.40" waitingTime="0.00" waitingCount="0" stopTime="0.00" timeLoss="2.92" rerouteNo="0" devices="vehroute_NS_wakeup_car.1 tripinfo_NS_wakeup_car.1 routing_NS_wakeup_car.1" vType="car" speedFactor="0.79" vaporized=""/>
    <tripinfo id="EW_wakeup_car.0" depart="99.00" departLane="-E5_1" departPos="4.60" departSpeed="0.00" departDelay="0.00" arrival="145.00" arrivalLane="E6_1" arrivalPos="89.60" arrivalSpeed="13.34" duration="46.00" routeLength="195.40" waitingTime="22.00" waitingCount="1" stopTime="0.00" timeLoss="31.93" rerouteNo="0" devices="vehroute_EW_wakeup_car.0 tripinfo_EW_wakeup_car.0 routing_EW_wakeup_car.0" vType="car" speedFactor="1.08" vaporized=""/>
    <tripinfo id="WE_wakeup_car.0" depart="111.00" departLane="-E6_1" departPos="4.60" departSpeed="0.00" departDelay="0.00" arrival="146.00" arrivalLane="E5_1" arrivalPos="89.60" arrivalSpeed="13.34" duration="35.00" routeLength="195.40" waitingTime="12.00" waitingCount="1" stopTime="0.00" timeLoss="20.43" rerouteNo="0" devices="vehroute_WE_wakeup_car.0 tripinfo_WE_wakeup_car.0 routing_WE_wakeup_car.0" vType="car" speedFactor="1.14" vaporized=""/>
    <tripinfo id="EW_wakeup_moto_left.0" depart="80.00" departLane="-E5_1" departPos="2.10" departSpeed="0.00" departDelay="0.00" arrival="149.00" arrivalLane="E8_2" arrivalPos="89.60" arrivalSpeed="13.10" duration="69.00" routeLength="196.45" waitingTime="43.00" waitingCount="2" stopTime="0.00" timeLoss="54.00" rerouteNo="0" devices="vehroute_EW_wakeup_moto_left.0 tripinfo_EW_wakeup_moto_left.0 routing_EW_wakeup_moto_left.0" vType="motorcycle" speedFactor="1.00" vaporized=""/>
    <tripinfo id="EW_wakeup_moto.0" depart="101.00" departLane="-E5_1" departPos="2.10" departSpeed="0.00" departDelay="0.00" arrival="151.00" arrivalLane="E6_2" arrivalPos="89.60" arrivalSpeed="13.10" duration="50.00" routeLength="197.90" waitingTime="21.00" waitingCount="1" stopTime="0.00" timeLoss="35.10" rerouteNo="0" devices="vehroute_EW_wakeup_moto.0 tripinfo_EW_wakeup_moto.0 routing_EW_wakeup_moto.0" vType="motorcycle" speedFactor="1.07" vaporized=""/>
    <personinfo id="ped_EW.1" depart="60.00" type="DEFAULT_PEDTYPE" speedFactor="1.03" duration="123.00" waitingTime="0.00" timeLoss="13.77" traveltime="123.00">
        <walk depart="60.00" departPos="0.00" arrival="183.00" arrivalPos="44.80" duration="123.00" routeLength="155.69" timeLoss="13.77" maxSpeed="1.43"/>
    </personinfo>
    <tripinfo id="NS_wakeup_car.2" depart="148.00" departLane="-E7_1" departPos="4.60" departSpeed="0.00" departDelay="0.00" arrival="192.00" arrivalLane="E8_1" arrivalPos="89.60" arrivalSpeed="10.49" duration="44.00" routeLength="195.40" waitingTime="18.00" waitingCount="1" stopTime="0.00" timeLoss="26.97" rerouteNo="0" devices="vehroute_NS_wakeup_car.2 tripinfo_NS_wakeup_car.2 routing_NS_wakeup_car.2" vType="car" speedFactor="0.83" vaporized=""/>
    <tripinfo id="NS_wakeup_delivery.0" depart="151.00" departLane="-E7_1" departPos="6.10" departSpeed="0.00" departDelay="1.00" arrival="194.00" arrivalLane="E8_2" arrivalPos="89.60" arrivalSpeed="9.43" duration="43.00" routeLength="193.90" waitingTime="15.00" waitingCount="1" stopTime="0.00" timeLoss="22.84" rerouteNo="0" devices="vehroute_NS_wakeup_delivery.0 tripinfo_NS_wakeup_delivery.0 routing_NS_wakeup_delivery.0" vType="delivery" speedFactor="1.03" vaporized=""/>
    <tripinfo id="NS_wakeup_car.3" depart="167.00" departLane="-E7_1" departPos="4.60" departSpeed="0.00" departDelay="0.00" arrival="194.00" arrivalLane="E8_1" arrivalPos="89.60" arrivalSpeed="12.77" duration="27.00" routeLength="195.40" waitingTime="1.00" waitingCount="1" stopTime="0.00" timeLoss="11.81" rerouteNo="0" devices="vehroute_NS_wakeup_car.3 tripinfo_NS_wakeup_car.3 routing_NS_wakeup_car.3" vType="car" speedFactor="0.96" vaporized=""/>
    <personinfo id="ped_WE.0" depart="0.00" type="DEFAULT_PEDTYPE" speedFactor="0.83" duration="195.00" waitingTime="0.00" timeLoss="59.31" traveltime="195.00">
        <walk depart="0.00" departPos="0.00" arrival="195.00" arrivalPos="44.80" duration="195.00" routeLength="155.69" timeLoss="59.31" maxSpeed="1.15"/>
    </personinfo>
    <personinfo id="ped_WE.1" depart="60.00" type="DEFAULT_PEDTYPE" speedFactor="0.90" duration="138.00" waitingTime="0.00" timeLoss="12.85" traveltime="138.00">
        <walk depart="60.00" departPos="0.00" arrival="198.00" arrivalPos="44.80" duration="138.00" routeLength="155.69" timeLoss="12.85" maxSpeed="1.24"/>
    </personinfo>
    <tripinfo id="NS_wakeup_moto.0" depart="179.00" departLane="-E7_1" departPos="2.10" departSpeed="0.00" departDelay="0.00" arrival="199.00" arrivalLane="E8_1" arrivalPos="89.60" arrivalSpeed="12.56" duration="20.00" routeLength="197.90" waitingTime="0.00" waitingCount="0" stopTime="0.00" timeLoss="3.86" rerouteNo="0" devices="vehroute_NS_wakeup_moto.0 tripinfo_NS_wakeup_moto.0 routing_NS_wakeup_moto.0" vType="motorcycle" speedFactor="0.91" vaporized=""/>
    <tripinfo id="NS_wakeup_car.4" depart="202.00" departLane="-E7_1" departPos="4.60" departSpeed="0.00" departDelay="0.00" arrival="220.00" arrivalLane="E8_1" arrivalPos="89.60" arrivalSpeed="13.51" duration="18.00" routeLength="195.40" waitingTime="0.00" waitingCount="0" stopTime="0.00" timeLoss="3.55" rerouteNo="0" devices="vehroute_NS_wakeup_car.4 tripinfo_NS_wakeup_car.4 routing_NS_wakeup_car.4" vType="car" speedFactor="1.08" vaporized=""/>
    <personinfo id="ped_NS.1" depart="60.00" type="DEFAULT_PEDTYPE" speedFactor="1.13" duration="163.00" waitingTime="0.00" timeLoss="63.84" traveltime="163.00">
        <walk depart="60.00" departPos="0.00" arrival="223.00" arrivalPos="44.80" duration="163.00" routeLength="155.69" timeLoss="63.84" maxSpeed="1.57"/>
    </personinfo>
    <personinfo id="ped_SN.1" depart="60.00" type="DEFAULT_PEDTYPE" speedFactor="1.01" duration="169.00" waitingTime="0.00" timeLoss="57.70" traveltime="169.00">
        <walk depart="60.00" departPos="0.00" arrival="229.00" arrivalPos="44.80" duration="169.00" routeLength="155.69" timeLoss="57.70" maxSpeed="1.40"/>
    </personinfo>
    <tripinfo id="EW_wakeup_car.1" depart="170.00" departLane="-E5_1" departPos="4.60" departSpeed="0.00" departDelay="0.00" arrival="236.00" arrivalLane="E6_1" arrivalPos="89.60" arrivalSpeed="12.92" duration="66.00" routeLength="195.40" waitingTime="43.00" waitingCount="1" stopTime="0.00" timeLoss="51.66" rerouteNo="0" devices="vehroute_EW_wakeup_car.1 tripinfo_EW_wakeup_car.1 routing_EW_wakeup_car.1" vType="car" speedFactor="1.01" vaporized=""/>
    <tripinfo id="EW_wakeup_car.2" depart="218.00" departLane="-E5_1" departPos="4.60" departSpeed="0.00" departDelay="0.00" arrival="238.00" arrivalLane="E6_1" arrivalPos="89.60" arrivalSpeed="12.91" duration="20.00" routeLength="195.40" waitingTime="0.00" waitingCount="0" stopTime="0.00" timeLoss="5.45" rerouteNo="0" devices="vehroute_EW_wakeup_car.2 tripinfo_EW_wakeup_car.2 routing_EW_wakeup_car.2" vType="car" speedFactor="1.02" vaporized=""/>
    <tripinfo id="EW_wakeup_delivery.0" depart="203.00" departLane="-E5_1" departPos="6.10" departSpeed="0.00" departDelay="0.00" arrival="239.00" arrivalLane="E6_2" arrivalPos="89.60" arrivalSpeed="9.43" duration="36.00" routeLength="193.90" waitingTime="6.00" waitingCount="1" stopTime="0.00" timeLoss="15.91" rerouteNo="0" devices="vehroute_EW_wakeup_delivery.0 tripinfo_EW_wakeup_delivery.0 routing_EW_wakeup_delivery.0" vType="delivery" speedFactor="0.99" vaporized=""/>
    <personinfo id="ped_NS.2" depart="120.00" type="DEFAULT_PEDTYPE" speedFactor="0.99" duration="127.00" waitingTime="0.00" timeLoss="14.30" traveltime="127.00">
        <walk depart="120.00" departPos="0.00" arrival="247.00" arrivalPos="44.80" duration="127.00" routeLength="155.69" timeLoss="14.30" maxSpeed="1.38"/>
    </personinfo>
    <personinfo id="ped_SN.2" depart="120.00" type="DEFAULT_PEDTYPE" speedFactor="0.93" duration="134.00" waitingTime="0.00" timeLoss="14.06" traveltime="134.00">
        <walk depart="120.00" departPos="0.00" arrival="254.00" arrivalPos="44.80" duration="134.00" routeLength="155.69" timeLoss="14.06" maxSpeed="1.30"/>
    </personinfo>
    <personinfo id="ped_WE.2" depart="120.00" type="DEFAULT_PEDTYPE" speedFactor="0.92" duration="158.00" waitingTime="0.00" timeLoss="36.60" traveltime="158.00">
        <walk depart="120.00" departPos="0.00" arrival="278.00" arrivalPos="44.80" duration="158.00" routeLength="155.69" timeLoss="36.60" maxSpeed="1.28"/>
    </personinfo>
    <personinfo id="ped_EW.2" depart="120.00" type="DEFAULT_PEDTYPE" speedFactor="0.89" duration="160.00" waitingTime="0.00" timeLoss="33.73" traveltime="160.00">
        <walk depart="120.00" departPos="0.00" arrival="280.00" arrivalPos="44.80" duration="160.00" routeLength="155.69" timeLoss="33.73" maxSpeed="1.23"/>
    </personinfo>
    <tripinfo id="SN_wakeup_car.1" depart="214.00" departLane="-E8_1" departPos="4.60" departSpeed="0.00" departDelay="0.00" arrival="282.00" arrivalLane="E7_1" arrivalPos="89.60" arrivalSpeed="12.20" duration="68.00" routeLength="195.40" waitingTime="43.00" waitingCount="1" stopTime="0.00" timeLoss="51.54" rerouteNo="0" devices="vehroute_SN_wakeup_car.1 tripinfo_SN_wakeup_car.1 routing_SN_wakeup_car.1" vType="car" speedFactor="0.90" vaporized=""/>
    <tripinfo id="NS_wakeup_car.5" depart="237.00" departLane="-E7_1" departPos="4.60" departSpeed="0.00" departDelay="0.00" arrival="282.00" arrivalLane="E8_1" arrivalPos="89.60" arrivalSpeed="13.78" duration="45.00" routeLength="195.40" waitingTime="20.00" waitingCount="1" stopTime="0.00" timeLoss="30.01" rerouteNo="0" devices="vehroute_NS_wakeup_car.5 tripinfo_NS_wakeup_car.5 routing_NS_wakeup_car.5" vType="car" speedFactor="1.13" vaporized=""/>
    <tripinfo id="NS_wakeup_car_left.0" depart="223.00" departLane="-E7_1" departPos="4.60" departSpeed="0.00" departDelay="0.00" arrival="286.00" arrivalLane="E5_2" arrivalPos="89.60" arrivalSpeed="12.67" duration="63.00" routeLength="193.95" waitingTime="34.00" waitingCount="2" stopTime="0.00" timeLoss="47.77" rerouteNo="0" devices="vehroute_NS_wakeup_car_left.0 tripinfo_NS_wakeup_car_left.0 routing_NS_wakeup_car_left.0" vType="car" speedFactor="1.01" vaporized=""/>
    <tripinfo id="NS_wakeup_car.6" depart="260.00" departLane="-E7_1" departPos="4.60" departSpeed="0.00" departDelay="0.00" arrival="288.00" arrivalLane="E8_2" arrivalPos="89.60" arrivalSpeed="11.17" duration="28.00" routeLength="195.40" waitingTime="0.00" waitingCount="0" stopTime="0.00" timeLoss="11.61" rerouteNo="0" devices="vehroute_NS_wakeup_car.6 tripinfo_NS_wakeup_car.6 routing_NS_wakeup_car.6" vType="car" speedFactor="0.87" vaporized=""/>
    <personinfo id="ped_WE.3" depart="180.00" type="DEFAULT_PEDTYPE" speedFactor="1.11" duration="112.00" waitingTime="0.00" timeLoss="10.92" traveltime="112.00">
        <walk depart="180.00" departPos="0.00" arrival="292.00" arrivalPos="44.80" duration="112.00" routeLength="155.69" timeLoss="10.92" maxSpeed="1.54"/>
    </personinfo>
    <personinfo id="ped_EW.3" depart="180.00" type="DEFAULT_PEDTYPE" speedFactor="1.03" duration="119.00" waitingTime="0.00" timeLoss="10.54" traveltime="119.00">
        <walk depart="180.00" departPos="0.00" arrival="299.00" arrivalPos="44.80" duration="119.00" routeLength="155.69" timeLoss="10.54" maxSpeed="1.44"/>
    </personinfo>
    <personinfo id="ped_SN.3" depart="180.00" type="DEFAULT_PEDTYPE" speedFactor="1.06" duration="136.00" waitingTime="0.00" timeLoss="30.38" traveltime="136.00">
        <walk depart="180.00" departPos="0.00" arrival="316.00" arrivalPos="44.80" duration="136.00" routeLength="155.69" timeLoss="30.38" maxSpeed="1.47"/>
    </personinfo>
    <tripinfo id="SN_wakeup_moto.0" depart="296.00" departLane="-E8_1" departPos="2.10" departSpeed="0.00" departDelay="0.00" arrival="317.00" arrivalLane="E7_1" arrivalPos="89.60" arrivalSpeed="10.60" duration="21.00" routeLength="197.90" waitingTime="0.00" waitingCount="0" stopTime="0.00" timeLoss="3.87" rerouteNo="0" devices="vehroute_SN_wakeup_moto.0 tripinfo_SN_wakeup_moto.0 routing_SN_wakeup_moto.0" vType="motorcycle" speedFactor="0.86" vaporized=""/>
    <personinfo id="ped_NS.3" depart="180.00" type="DEFAULT_PEDTYPE" speedFactor="0.99" duration="139.00" waitingTime="0.00" timeLoss="25.73" traveltime="139.00">
        <walk depart="180.00" departPos="0.00" arrival="319.00" arrivalPos="44.80" duration="139.00" routeLength="155.69" timeLoss="25.73" maxSpeed="1.37"/>
    </personinfo>
    <tripinfo id="WE_wakeup_car_right.0" depart="271.00" departLane="-E6_1" departPos="4.60" departSpeed="0.00" departDelay="0.00" arrival="327.00" arrivalLane="E8_1" arrivalPos="89.60" arrivalSpeed="10.20" duration="56.00" routeLength="183.63" waitingTime="31.00" waitingCount="1" stopTime="0.00" timeLoss="38.28" rerouteNo="0" devices="vehroute_WE_wakeup_car_right.0 tripinfo_WE_wakeup_car_right.0 routing_WE_wakeup_car_right.0" vType="car" speedFactor="0.80" vaporized=""/>
    <tripinfo id="EW_wakeup_car_left.0" depart="309.00" departLane="-E5_1" departPos="4.60" departSpeed="0.00" departDelay="0.00" arrival="330.00" arrivalLane="E8_2" arrivalPos="89.60" arrivalSpeed="13.39" duration="21.00" routeLength="193.95" waitingTime="0.00" waitingCount="0" stopTime="0.00" timeLoss="6.06" rerouteNo="0" devices="vehroute_EW_wakeup_car_left.0 tripinfo_EW_wakeup_car_left.0 routing_EW_wakeup_car_left.0" vType="car" speedFactor="1.26" vaporized=""/>
    <tripinfo id="WE_wakeup_car_right.1" depart="315.00" departLane="-E6_1" departPos="4.60" departSpeed="0.00" departDelay="0.00" arrival="336.00" arrivalLane="E8_1" arrivalPos="89.60" arrivalSpeed="12.66" duration="21.00" routeLength="183.63" waitingTime="0.00" waitingCount="0" stopTime="0.00" timeLoss="6.33" rerouteNo="0" devices="vehroute_WE_wakeup_car_right.1 tripinfo_WE_wakeup_car_right.1 routing_WE_wakeup_car_right.1" vType="car" speedFactor="1.00" vaporized=""/>
    <tripinfo id="WE_wakeup_car.1" depart="329.00" departLane="-E6_1" departPos="4.60" departSpeed="0.00" departDelay="0.00" arrival="350.00" arrivalLane="E5_1" arrivalPos="89.60" arrivalSpeed="11.48" duration="21.00" routeLength="195.40" waitingTime="0.00" waitingCount="0" stopTime="0.00" timeLoss="3.81" rerouteNo="0" devices="vehroute_WE_wakeup_car.1 tripinfo_WE_wakeup_car.1 routing_WE_wakeup_car.1" vType="car" speedFactor="0.85" vaporized=""/>
    <personinfo id="ped_WE.4" depart="240.00" type="DEFAULT_PEDTYPE" speedFactor="1.17" duration="117.00" waitingTime="0.00" timeLoss="21.16" traveltime="117.00">
        <walk depart="240.00" departPos="0.00" arrival="357.00" arrivalPos="44.80" duration="117.00" routeLength="155.69" timeLoss="21.16" maxSpeed="1.62"/>
    </personinfo>
    <tripinfo id="SN_wakeup_car.2" depart="315.00" departLane="-E8_1" departPos="4.60" departSpeed="0.00" departDelay="0.00" arrival="371.00" arrivalLane="E7_1" arrivalPos="89.60" arrivalSpeed="13.09" duration="56.00" routeLength="195.40" waitingTime="32.00" waitingCount="1" stopTime="0.00" timeLoss="41.15" rerouteNo="0" devices="vehroute_SN_wakeup_car.2 tripinfo_SN_wakeup_car.2 routing_SN_wakeup_car.2" vType="car" speedFactor="0.95" vaporized=""/>
    <tripinfo id="SN_wakeup_car.3" depart="331.00" departLane="-E8_1" departPos="4.60" departSpeed="0.00" departDelay="0.00" arrival="371.00" arrivalLane="E7_2" arrivalPos="89.60" arrivalSpeed="12.94" duration="40.00" routeLength="195.40" waitingTime="16.00" waitingCount="1" stopTime="0.00" timeLoss="25.30" rerouteNo="0" devices="vehroute_SN_wakeup_car.3 tripinfo_SN_wakeup_car.3 routing_SN_wakeup_car.3" vType="car" speedFactor="0.97" vaporized=""/>
    <personinfo id="ped_EW.4" depart="240.00" type="DEFAULT_PEDTYPE" speedFactor="0.94" duration="133.00" waitingTime="0.00" timeLoss="14.09" traveltime="133.00">
        <walk depart="240.00" departPos="0.00" arrival="373.00" arrivalPos="44.80" duration="133.00" routeLength="155.69" timeLoss="14.09" maxSpeed="1.31"/>
    </personinfo>
    <personinfo id="ped_SN.4" depart="240.00" type="DEFAULT_PEDTYPE" speedFactor="1.05" duration="166.00" waitingTime="0.00" timeLoss="59.56" traveltime="166.00">
        <walk depart="240.00" departPos="0.00" arrival="406.00" arrivalPos="44.80" duration="166.00" routeLength="155.69" timeLoss="59.56" maxSpeed="1.46"/>
    </personinfo>
    <tripinfo id="SN_wakeup_moto_right.0" depart="386.00" departLane="-E8_1" departPos="2.10" departSpeed="0.00" departDelay="0.00" arrival="407.00" arrivalLane="E5_1" arrivalPos="89.60" arrivalSpeed="12.53" duration="21.00" routeLength="186.13" waitingTime="0.00" waitingCount="0" stopTime="0.00" timeLoss="6.54" rerouteNo="0" devices="vehroute_SN_wakeup_moto_right.0 tripinfo_SN_wakeup_moto_right.0 routing_SN_wakeup_moto_right.0" vType="motorcycle" speedFactor="1.03" vaporized=""/>
    <personinfo id="ped_NS.4" depart="240.00" type="DEFAULT_PEDTYPE" speedFactor="0.96" duration="171.00" waitingTime="0.00" timeLoss="54.81" traveltime="171.00">
        <walk depart="240.00" departPos="0.00" arrival="411.00" arrivalPos="44.80" duration="171.00" routeLength="155.69" timeLoss="54.81" maxSpeed="1.34"/>
    </personinfo>
    <tripinfo id="EW_wakeup_truck.0" depart="359.00" departLane="-E5_1" departPos="7.10" departSpeed="0.00" departDelay="0.00" arrival="419.00" arrivalLane="E6_1" arrivalPos="89.60" arrivalSpeed="10.87" duration="60.00" routeLength="192.90" waitingTime="31.00" waitingCount="1" stopTime="0.00" timeLoss="41.74" rerouteNo="0" devices="vehroute_EW_wakeup_truck.0 tripinfo_EW_wakeup_truck.0 routing_EW_wakeup_truck.0" vType="truck" speedFactor="0.99" vaporized=""/>
    <tripinfo id="WE_wakeup_delivery.0" depart="387.00" departLane="-E6_1" departPos="6.10" departSpeed="0.00" departDelay="0.00" arrival="419.00" arrivalLane="E5_1" arrivalPos="89.60" arrivalSpeed="9.43" duration="32.00" routeLength="193.90" waitingTime="3.00" waitingCount="1" stopTime="0.00" timeLoss="11.80" rerouteNo="0" devices="vehroute_WE_wakeup_delivery.0 tripinfo_WE_wakeup_delivery.0 routing_WE_wakeup_delivery.0" vType="delivery" speedFactor="1.02" vaporized=""/>
    <personinfo id="ped_SN.5" depart="300.00" type="DEFAULT_PEDTYPE" speedFactor="1.05" duration="120.00" waitingTime="0.00" timeLoss="12.84" traveltime="120.00">
        <walk depart="300.00" departPos="0.00" arrival="420.00" arrivalPos="44.80" duration="120.00" routeLength="155.69" timeLoss="12.84" maxSpeed="1.45"/>
    </personinfo>
    <tripinfo id="EW_wakeup_car.3" depart="404.00" departLane="-E5_1" departPos="4.60" departSpeed="0.00" departDelay="0.00" arrival="423.00" arrivalLane="E6_1" arrivalPos="89.60" arrivalSpeed="13.24" duration="19.00" routeLength="195.40" waitingTime="0.00" waitingCount="0" stopTime="0.00" timeLoss="3.85" rerouteNo="0" devices="vehroute_EW_wakeup_car.3 tripinfo_EW_wakeup_car.3 routing_EW_wakeup_car.3" vType="car" speedFactor="0.97" vaporized=""/>
    <tripinfo id="EW_wakeup_car_right.0" depart="413.00" departLane="-E5_1" departPos="4.60" departSpeed="0.00" departDelay="0.00" arrival="434.00" arrivalLane="E7_1" arrivalPos="89.60" arrivalSpeed="12.35" duration="21.00" routeLength="183.63" waitingTime="0.00" waitingCount="0" stopTime="0.00" timeLoss="5.36" rerouteNo="0" devices="vehroute_EW_wakeup_car_right.0 tripinfo_EW_wakeup_car_right.0 routing_EW_wakeup_car_right.0" vType="car" speedFactor="0.89" vaporized=""/>
    <tripinfo id="EW_wakeup_car.4" depart="417.00" departLane="-E5_1" departPos="4.60" departSpeed="0.00" departDelay="0.00" arrival="436.00" arrivalLane="E6_1" arrivalPos="89.60" arrivalSpeed="12.48" duration="19.00" routeLength="195.40" waitingTime="0.00" waitingCount="0" stopTime="0.00" timeLoss="3.96" rerouteNo="0" devices="vehroute_EW_wakeup_car.4 tripinfo_EW_wakeup_car.4 routing_EW_wakeup_car.4" vType="car" speedFactor="0.96" vaporized=""/>
    <personinfo id="ped_NS.5" depart="300.00" type="DEFAULT_PEDTYPE" speedFactor="0.85" duration="147.00" waitingTime="0.00" timeLoss="14.95" traveltime="147.00">
        <walk depart="300.00" departPos="0.00" arrival="447.00" arrivalPos="44.80" duration="147.00" routeLength="155.69" timeLoss="14.95" maxSpeed="1.18"/>
    </personinfo>
    <personinfo id="ped_WE.5" depart="300.00" type="DEFAULT_PEDTYPE" speedFactor="1.16" duration="148.00" waitingTime="0.00" timeLoss="51.47" traveltime="148.00">
        <walk depart="300.00" departPos="0.00" arrival="448.00" arrivalPos="44.80" duration="148.00" routeLength="155.69" timeLoss="51.47" maxSpeed="1.61"/>
    </personinfo>
    <personinfo id="ped_EW.5" depart="300.00" type="DEFAULT_PEDTYPE" speedFactor="1.14" duration="148.00" waitingTime="0.00" timeLoss="49.27" traveltime="148.00">
        <walk depart="300.00" departPos="0.00" arrival="448.00" arrivalPos="44.80" duration="148.00" routeLength="155.69" timeLoss="49.27" maxSpeed="1.58"/>
    </personinfo>
    <tripinfo id="NS_wakeup_moto_right.0" depart="428.00" departLane="-E7_1" departPos="2.10" departSpeed="0.00" departDelay="0.00" arrival="461.00" arrivalLane="E6_1" arrivalPos="89.60" arrivalSpeed="11.81" duration="33.00" routeLength="186.13" waitingTime="10.00" waitingCount="1" stopTime="0.00" timeLoss="17.53" rerouteNo="0" devices="vehroute_NS_wakeup_moto_right.0 tripinfo_NS_wakeup_moto_right.0 routing_NS_wakeup_moto_right.0" vType="motorcycle" speedFactor="0.93" vaporized=""/>
    <personinfo id="ped_EW.6" depart="360.00" type="DEFAULT_PEDTYPE" speedFactor="1.19" duration="105.00" waitingTime="0.00" timeLoss="10.53" traveltime="105.00">
        <walk depart="360.00" departPos="0.00" arrival="465.00" arrivalPos="44.80" duration="105.00" routeLength="155.69" timeLoss="10.53" maxSpeed="1.65"/>
    </personinfo>
    <tripinfo id="SN_wakeup_moto.1" depart="456.00" departLane="-E8_1" departPos="2.10" departSpeed="0.00" departDelay="0.00" arrival="474.00" arrivalLane="E7_1" arrivalPos="89.60" arrivalSpeed="13.35" duration="18.00" routeLength="197.90" waitingTime="0.00" waitingCount="0" stopTime="0.00" timeLoss="3.20" rerouteNo="0" devices="vehroute_SN_wakeup_moto.1 tripinfo_SN_wakeup_moto.1 routing_SN_wakeup_moto.1" vType="motorcycle" speedFactor="1.16" vaporized=""/>
    <tripinfo id="SN_wakeup_truck.0" depart="463.00" departLane="-E8_1" departPos="7.10" departSpeed="0.00" departDelay="0.00" arrival="485.00" arrivalLane="E7_1" arrivalPos="89.60" arrivalSpeed="11.06" duration="22.00" routeLength="192.90" waitingTime="0.00" waitingCount="0" stopTime="0.00" timeLoss="4.18" rerouteNo="0" devices="vehroute_SN_wakeup_truck.0 tripinfo_SN_wakeup_truck.0 routing_SN_wakeup_truck.0" vType="truck" speedFactor="1.03" vaporized=""/>
    <personinfo id="ped_WE.6" depart="360.00" type="DEFAULT_PEDTYPE" speedFactor="0.95" duration="132.00" waitingTime="0.00" timeLoss="13.95" traveltime="132.00">
        <walk depart="360.00" departPos="0.00" arrival="492.00" arrivalPos="44.80" duration="132.00" routeLength="155.69" timeLoss="13.95" maxSpeed="1.32"/>
    </personinfo>
    <personinfo id="ped_NS.6" depart="360.00" type="DEFAULT_PEDTYPE" speedFactor="1.06" duration="136.00" waitingTime="0.00" timeLoss="30.68" traveltime="136.00">
        <walk depart="360.00" departPos="0.00" arrival="496.00" arrivalPos="44.80" duration="136.00" routeLength="155.69" timeLoss="30.68" maxSpeed="1.48"/>
    </personinfo>
    <personinfo id="ped_SN.6" depart="360.00" type="DEFAULT_PEDTYPE" speedFactor="1.01" duration="138.00" waitingTime="0.00" timeLoss="27.16" traveltime="138.00">
        <walk depart="360.00" departPos="0.00" arrival="498.00" arrivalPos="44.80" duration="138.00" routeLength="155.69" timeLoss="27.16" maxSpeed="1.40"/>
    </personinfo>
    <tripinfo id="WE_wakeup_moto.0" depart="457.00" departLane="-E6_1" departPos="2.10" departSpeed="0.00" departDelay="0.00" arrival="506.00" arrivalLane="E5_1" arrivalPos="89.60" arrivalSpeed="13.27" duration="49.00" routeLength="197.90" waitingTime="25.00" waitingCount="1" stopTime="0.00" timeLoss="33.29" rerouteNo="0" devices="vehroute_WE_wakeup_moto.0 tripinfo_WE_wakeup_moto.0 routing_WE_wakeup_moto.0" vType="motorcycle" speedFactor="0.97" vaporized=""/>
    <tripinfo id="WE_wakeup_car.2" depart="462.00" departLane="-E6_1" departPos="4.60" departSpeed="0.00" departDelay="0.00" arrival="506.00" arrivalLane="E5_2" arrivalPos="89.60" arrivalSpeed="13.01" duration="44.00" routeLength="195.40" waitingTime="21.00" waitingCount="1" stopTime="0.00" timeLoss="28.98" rerouteNo="0" devices="vehroute_WE_wakeup_car.2 tripinfo_WE_wakeup_car.2 routing_WE_wakeup_car.2" vType="car" speedFactor="0.96" vaporized=""/>
    <tripinfo id="WE_wakeup_truck.0" depart="474.00" departLane="-E6_1" departPos="7.10" departSpeed="0.00" departDelay="0.00" arrival="510.00" arrivalLane="E5_1" arrivalPos="89.60" arrivalSpeed="11.06" duration="36.00" routeLength="192.90" waitingTime="8.00" waitingCount="1" stopTime="0.00" timeLoss="18.46" rerouteNo="0" devices="vehroute_WE_wakeup_truck.0 tripinfo_WE_wakeup_truck.0 routing_WE_wakeup_truck.0" vType="truck" speedFactor="0.96" vaporized=""/>
    <tripinfo id="EW_wakeup_moto.1" depart="504.00" departLane="-E5_1" departPos="2.10" departSpeed="0.00" departDelay="0.00" arrival="522.00" arrivalLane="E6_1" arrivalPos="89.60" arrivalSpeed="12.84" duration="18.00" routeLength="197.90" waitingTime="0.00" waitingCount="0" stopTime="0.00" timeLoss="3.18" rerouteNo="0" devices="vehroute_EW_wakeup_moto.1 tripinfo_EW_wakeup_moto.1 routing_EW_wakeup_moto.1" vType="motorcycle" speedFactor="1.09" vaporized=""/>
    <personinfo id="ped_WE.7" depart="420.00" type="DEFAULT_PEDTYPE" speedFactor="1.08" duration="120.00" waitingTime="0.00" timeLoss="16.54" traveltime="120.00">
        <walk depart="420.00" departPos="0.00" arrival="540.00" arrivalPos="44.80" duration="120.00" routeLength="155.69" timeLoss="16.54" maxSpeed="1.50"/>
    </personinfo>
    <personinfo id="ped_EW.7" depart="420.00" type="DEFAULT_PEDTYPE" speedFactor="1.02" duration="124.00" waitingTime="0.00" timeLoss="13.85" traveltime="124.00">
        <walk depart="420.00" departPos="0.00" arrival="544.00" arrivalPos="44.80" duration="124.00" routeLength="155.69" timeLoss="13.85" maxSpeed="1.41"/>
    </personinfo>