<?xml version="1.0" encoding="UTF-8"?>

<!-- generated on 2025-03-26 16:52:22 by Eclipse SUMO GUI Version 1.22.0
<sumoConfiguration xmlns:xsi="http://www.w3.org/2001/XMLSchema-instance" xsi:noNamespaceSchemaLocation="http://sumo.dlr.de/xsd/sumoConfiguration.xsd">

    <input>
        <net-file value="app/cross.net.xml"/>
        <route-files value="app/vehicles.rou.xml"/>
    </input>

    <output>
        <queue-output value="app/statistiche/queue.xml"/>
        <summary-output value="app/statistiche/summary.xml"/>
        <tripinfo-output value="app/statistiche/tripinfo.xml"/>
        <vehroute-output value="app/statistiche/vehroute.xml"/>
    </output>

    <time>
        <begin value="0"/>
        <end value="86400"/>
    </time>

    <processing>
        <collision.action value="warn"/>
        <collision.stoptime value="1800"/>
        <collision.check-junctions value="true"/>
        <time-to-teleport value="-1"/>
    </processing>

    <report>
        <no-warnings value="true"/>
    </report>

    <traci_server>
        <remote-port value="56489"/>
    </traci_server>

    <random_number>
        <random value="true"/>
        <seed value="1742988170"/>
    </random_number>

    <gui_only>
        <gui-settings-file value="app/view.port.xml"/>
        <start value="true"/>
        <delay value="100"/>
    </gui_only>

</sumoConfiguration>
-->

<tripinfos xmlns:xsi="http://www.w3.org/2001/XMLSchema-instance" xsi:noNamespaceSchemaLocation="http://sumo.dlr.de/xsd/tripinfo_file.xsd">
    <tripinfo id="NS_wakeup_car.0" depart="28.00" departLane="-E7_1" departPos="4.60" departSpeed="0.00" departDelay="0.00" arrival="47.00" arrivalLane="E8_1" arrivalPos="89.60" arrivalSpeed="13.48" duration="19.00" routeLength="195.40" waitingTime="0.00" waitingCount="0" stopTime="0.00" timeLoss="3.98" rerouteNo="0" devices="vehroute_NS_wakeup_car.0 tripinfo_NS_wakeup_car.0 routing_NS_wakeup_car.0" vType="car" speedFactor="1.06" vaporized=""/>
    <tripinfo id="EW_wakeup_car_right.0" depart="51.00" departLane="-E5_1" departPos="4.60" departSpeed="0.00" departDelay="0.00" arrival="72.00" arrivalLane="E7_1" arrivalPos="89.60" arrivalSpeed="12.25" duration="21.00" routeLength="183.63" waitingTime="0.00" waitingCount="0" stopTime="0.00" timeLoss="6.20" rerouteNo="0" devices="vehroute_EW_wakeup_car_right.0 tripinfo_EW_wakeup_car_right.0 routing_EW_wakeup_car_right.0" vType="car" speedFactor="0.97" vaporized=""/>
    <tripinfo id="SN_wakeup_car.0" depart="79.00" departLane="-E8_1" departPos="4.60" departSpeed="0.00" departDelay="0.00" arrival="100.00" arrivalLane="E7_2" arrivalPos="89.60" arrivalSpeed="13.48" duration="21.00" routeLength="195.40" waitingTime="0.00" waitingCount="0" stopTime="0.00" timeLoss="6.10" rerouteNo="0" devices="vehroute_SN_wakeup_car.0 tripinfo_SN_wakeup_car.0 routing_SN_wakeup_car.0" vType="car" speedFactor="1.06" vaporized=""/>
    <tripinfo id="SN_wakeup_moto_right.0" depart="44.00" departLane="-E8_1" departPos="2.10" departSpeed="0.00" departDelay="0.00" arrival="101.00" arrivalLane="E5_1" arrivalPos="89.60" arrivalSpeed="12.10" duration="57.00" routeLength="186.13" waitingTime="31.00" waitingCount="1" stopTime="0.00" timeLoss="41.19" rerouteNo="0" devices="vehroute_SN_wakeup_moto_right.0 tripinfo_SN_wakeup_moto_right.0 routing_SN_wakeup_moto_right.0" vType="motorcycle" speedFactor="0.93" vaporized=""/>
    <personinfo id="ped_WE.0" depart="0.00" type="DEFAULT_PEDTYPE" speedFactor="1.05" duration="119.00" waitingTime="0.00" timeLoss="11.95" traveltime="119.00">
        <walk depart="0.00" departPos="0.00" arrival="119.00" arrivalPos="44.80" duration="119.00" routeLength="155.69" timeLoss="11.95" maxSpeed="1.45"/>
    </personinfo>
    <tripinfo id="NS_wakeup_delivery.0" depart="103.00" departLane="-E7_1" departPos="6.10" departSpeed="0.00" departDelay="0.00" arrival="127.00" arrivalLane="E8_1" arrivalPos="89.60" arrivalSpeed="9.31" duration="24.00" routeLength="193.90" waitingTime="0.00" waitingCount="0" stopTime="0.00" timeLoss="3.83" rerouteNo="0" devices="vehroute_NS_wakeup_delivery.0 tripinfo_NS_wakeup_delivery.0 routing_NS_wakeup_delivery.0" vType="delivery" speedFactor="0.96" vaporized=""/>
    <personinfo id="ped_EW.0" depart="0.00" type="DEFAULT_PEDTYPE" speedFactor="0.97" duration="128.00" waitingTime="0.00" timeLoss="12.81" traveltime="128.00">
        <walk depart="0.00" departPos="0.00" arrival="128.00" arrivalPos="44.80" duration="128.00" routeLength="155.69" timeLoss="12.81" maxSpeed="1.35"/>
    </personinfo>
    <personinfo id="ped_SN.0" depart="0.00" type="DEFAULT_PEDTYPE" speedFactor="1.07" duration="136.00" waitingTime="0.00" timeLoss="31.46" traveltime="136.00">
        <walk depart="0.00" departPos="0.00" arrival="136.00" arrivalPos="44.80" duration="136.00" routeLength="155.69" timeLoss="31.46" maxSpeed="1.49"/>
    </personinfo>
    <personinfo id="ped_NS.0" depart="0.00" type="DEFAULT_PEDTYPE" speedFactor="1.00" duration="139.00" waitingTime="0.00" timeLoss="27.06" traveltime="139.00">
        <walk depart="0.00" departPos="0.00" arrival="139.00" arrivalPos="44.80" duration="139.00" routeLength="155.69" timeLoss="27.06" maxSpeed="1.39"/>
    </personinfo>
    <tripinfo id="WE_wakeup_moto.0" depart="87.00" departLane="-E6_1" departPos="2.10" departSpeed="0.00" departDelay="0.00" arrival="146.00" arrivalLane="E5_1" arrivalPos="89.60" arrivalSpeed="12.88" duration="59.00" routeLength="197.90" waitingTime="34.00" waitingCount="1" stopTime="0.00" timeLoss="44.51" rerouteNo="0" devices="vehroute_WE_wakeup_moto.0 tripinfo_WE_wakeup_moto.0 routing_WE_wakeup_moto.0" vType="motorcycle" speedFactor="1.16" vaporized=""/>
    <tripinfo id="EW_wakeup_delivery.0" depart="83.00" departLane="-E5_1" departPos="6.10" departSpeed="0.00" departDelay="0.00" arrival="149.00" arrivalLane="E6_1" arrivalPos="89.60" arrivalSpeed="9.54" duration="66.00" routeLength="193.90" waitingTime="37.00" waitingCount="1" stopTime="0.00" timeLoss="45.70" rerouteNo="0" devices="vehroute_EW_wakeup_delivery.0 tripinfo_EW_wakeup_delivery.0 routing_EW_wakeup_delivery.0" vType="delivery" speedFactor="0.97" vaporized=""/>
    <tripinfo id="WE_wakeup_car.0" depart="132.00" departLane="-E6_1" departPos="4.60" departSpeed="0.00" departDelay="0.00" arrival="152.00" arrivalLane="E5_1" arrivalPos="89.60" arrivalSpeed="12.33" duration="20.00" routeLength="195.40" waitingTime="0.00" waitingCount="0" stopTime="0.00" timeLoss="3.93" rerouteNo="0" devices="vehroute_WE_wakeup_car.0 tripinfo_WE_wakeup_car.0 routing_WE_wakeup_car.0" vType="car" speedFactor="0.90" vaporized=""/>
    <tripinfo id="WE_wakeup_car.1" depart="145.00" departLane="-E6_1" departPos="4.60" departSpeed="0.00" departDelay="0.00" arrival="163.00" arrivalLane="E5_1" arrivalPos="89.60" arrivalSpeed="12.70" duration="18.00" routeLength="195.40" waitingTime="0.00" waitingCount="0" stopTime="0.00" timeLoss="3.15" rerouteNo="0" devices="vehroute_WE_wakeup_car.1 tripinfo_WE_wakeup_car.1 routing_WE_wakeup_car.1" vType="car" speedFactor="1.04" vaporized=""/>
    <personinfo id="ped_WE.1" depart="60.00" type="DEFAULT_PEDTYPE" speedFactor="0.98" duration="127.00" waitingTime="0.00" timeLoss="12.62" traveltime="127.00">
        <walk depart="60.00" departPos="0.00" arrival="187.00" arrivalPos="44.80" duration="127.00" routeLength="155.69" timeLoss="12.62" maxSpeed="1.36"/>
    </personinfo>
    <tripinfo id="SN_wakeup_car_right.0" depart="150.00" departLane="-E8_1" departPos="4.60" departSpeed="0.00" departDelay="0.00" arrival="191.00" arrivalLane="E5_1" arrivalPos="89.60" arrivalSpeed="13.84" duration="41.00" routeLength="183.63" waitingTime="16.00" waitingCount="1" stopTime="0.00" timeLoss="26.89" rerouteNo="0" devices="vehroute_SN_wakeup_car_right.0 tripinfo_SN_wakeup_car_right.0 routing_SN_wakeup_car_right.0" vType="car" speedFactor="1.11" vaporized=""/>
    <tripinfo id="NS_wakeup_car.1" depart="154.00" departLane="-E7_1" departPos="4.60" departSpeed="0.00" departDelay="0.00" arrival="191.00" arrivalLane="E8_1" arrivalPos="89.60" arrivalSpeed="13.32" duration="37.00" routeLength="195.40" waitingTime="14.00" waitingCount="1" stopTime="0.00" timeLoss="22.44" rerouteNo="0" devices="vehroute_NS_wakeup_car.1 tripinfo_NS_wakeup_car.1 routing_NS_wakeup_car.1" vType="car" speedFactor="1.19" vaporized=""/>
    <tripinfo id="NS_wakeup_car.2" depart="157.00" departLane="-E7_1" departPos="4.60" departSpeed="0.00" departDelay="0.00" arrival="191.00" arrivalLane="E8_2" arrivalPos="89.60" arrivalSpeed="13.48" duration="34.00" routeLength="195.40" waitingTime="9.00" waitingCount="1" stopTime="0.00" timeLoss="19.69" rerouteNo="0" devices="vehroute_NS_wakeup_car.2 tripinfo_NS_wakeup_car.2 routing_NS_wakeup_car.2" vType="car" speedFactor="1.17" vaporized=""/>
    <tripinfo id="NS_wakeup_car.3" depart="162.00" departLane="-E7_1" departPos="4.60" departSpeed="0.00" departDelay="0.00" arrival="193.00" arrivalLane="E8_1" arrivalPos="89.60" arrivalSpeed="13.75" duration="31.00" routeLength="195.40" waitingTime="7.00" waitingCount="1" stopTime="0.00" timeLoss="16.10" rerouteNo="0" devices="vehroute_NS_wakeup_car.3 tripinfo_NS_wakeup_car.3 routing_NS_wakeup_car.3" vType="car" speedFactor="1.04" vaporized=""/>
    <tripinfo id="SN_wakeup_car_left.0" depart="135.00" departLane="-E8_1" departPos="4.60" departSpeed="0.00" departDelay="0.00" arrival="198.00" arrivalLane="E6_2" arrivalPos="89.60" arrivalSpeed="12.67" duration="63.00" routeLength="193.95" waitingTime="36.00" waitingCount="2" stopTime="0.00" timeLoss="47.87" rerouteNo="0" devices="vehroute_SN_wakeup_car_left.0 tripinfo_SN_wakeup_car_left.0 routing_SN_wakeup_car_left.0" vType="car" speedFactor="1.13" vaporized=""/>
    <tripinfo id="SN_wakeup_truck.0" depart="187.00" departLane="-E8_1" departPos="7.10" departSpeed="0.00" departDelay="0.00" arrival="209.00" arrivalLane="E7_1" arrivalPos="89.60" arrivalSpeed="10.77" duration="22.00" routeLength="192.90" waitingTime="0.00" waitingCount="0" stopTime="0.00" timeLoss="4.61" rerouteNo="0" devices="vehroute_SN_wakeup_truck.0 tripinfo_SN_wakeup_truck.0 routing_SN_wakeup_truck.0" vType="truck" speedFactor="0.96" vaporized=""/>
    <tripinfo id="NS_wakeup_moto.0" depart="195.00" departLane="-E7_1" departPos="2.10" departSpeed="0.00" departDelay="0.00" arrival="213.00" arrivalLane="E8_1" arrivalPos="89.60" arrivalSpeed="12.27" duration="18.00" routeLength="197.90" waitingTime="0.00" waitingCount="0" stopTime="0.00" timeLoss="3.75" rerouteNo="0" devices="vehroute_NS_wakeup_moto.0 tripinfo_NS_wakeup_moto.0 routing_NS_wakeup_moto.0" vType="motorcycle" speedFactor="1.03" vaporized=""/>
    <tripinfo id="SN_wakeup_moto.0" depart="195.00" departLane="-E8_1" departPos="2.10" departSpeed="0.00" departDelay="0.00" arrival="214.00" arrivalLane="E7_1" arrivalPos="89.60" arrivalSpeed="11.40" duration="19.00" routeLength="197.90" waitingTime="0.00" waitingCount="0" stopTime="0.00" timeLoss="3.35" rerouteNo="0" devices="vehroute_SN_wakeup_moto.0 tripinfo_SN_wakeup_moto.0 routing_SN_wakeup_moto.0" vType="motorcycle" speedFactor="0.94" vaporized=""/>
    <personinfo id="ped_EW.1" depart="60.00" type="DEFAULT_PEDTYPE" speedFactor="0.79" duration="157.00" waitingTime="0.00" timeLoss="15.24" traveltime="157.00">
        <walk depart="60.00" departPos="0.00" arrival="217.00" arrivalPos="44.80" duration="157.00" routeLength="155.69" timeLoss="15.24" maxSpeed="1.10"/>
    </personinfo>
    <personinfo id="ped_NS.1" depart="60.00" type="DEFAULT_PEDTYPE" speedFactor="1.03" duration="167.00" waitingTime="0.00" timeLoss="58.51" traveltime="167.00">
        <walk depart="60.00" departPos="0.00" arrival="227.00" arrivalPos="44.80" duration="167.00" routeLength="155.69" timeLoss="58.51" maxSpeed="1.43"/>
    </personinfo>
    <personinfo id="ped_SN.1" depart="60.00" type="DEFAULT_PEDTYPE" speedFactor="0.96" duration="172.00" waitingTime="0.00" timeLoss="55.83" traveltime="172.00">
        <walk depart="60.00" departPos="0.00" arrival="232.00" arrivalPos="44.80" duration="172.00" routeLength="155.69" timeLoss="55.83" maxSpeed="1.34"/>
    </personinfo>
    <tripinfo id="EW_wakeup_car_right.1" depart="217.00" departLane="-E5_1" departPos="4.60" departSpeed="0.00" departDelay="0.00" arrival="238.00" arrivalLane="E7_1" arrivalPos="89.60" arrivalSpeed="12.70" duration="21.00" routeLength="183.63" waitingTime="0.00" waitingCount="0" stopTime="0.00" timeLoss="6.56" rerouteNo="0" devices="vehroute_EW_wakeup_car_right.1 tripinfo_EW_wakeup_car_right.1 routing_EW_wakeup_car_right.1" vType="car" speedFactor="1.04" vaporized=""/>
    <personinfo id="ped_NS.2" depart="120.00" type="DEFAULT_PEDTYPE" speedFactor="1.06" duration="119.00" waitingTime="0.00" timeLoss="13.19" traveltime="119.00">
        <walk depart="120.00" departPos="0.00" arrival="239.00" arrivalPos="44.80" duration="119.00" routeLength="155.69" timeLoss="13.19" maxSpeed="1.47"/>
    </personinfo>
    <personinfo id="ped_SN.2" depart="120.00" type="DEFAULT_PEDTYPE" speedFactor="1.04" duration="120.00" waitingTime="0.00" timeLoss="11.95" traveltime="120.00">
        <walk depart="120.00" departPos="0.00" arrival="240.00" arrivalPos="44.80" duration="120.00" routeLength="155.69" timeLoss="11.95" maxSpeed="1.44"/>
    </personinfo>
    <tripinfo id="WE_wakeup_truck.0" depart="231.00" departLane="-E6_1" departPos="7.10" departSpeed="0.00" departDelay="0.00" arrival="253.00" arrivalLane="E5_1" arrivalPos="89.60" arrivalSpeed="10.63" duration="22.00" routeLength="192.90" waitingTime="0.00" waitingCount="0" stopTime="0.00" timeLoss="4.59" rerouteNo="0" devices="vehroute_WE_wakeup_truck.0 tripinfo_WE_wakeup_truck.0 routing_WE_wakeup_truck.0" vType="truck" speedFactor="1.05" vaporized=""/>
    <personinfo id="ped_EW.2" depart="120.00" type="DEFAULT_PEDTYPE" speedFactor="1.04" duration="152.00" waitingTime="0.00" timeLoss="44.65" traveltime="152.00">
        <walk depart="120.00" departPos="0.00" arrival="272.00" arrivalPos="44.80" duration="152.00" routeLength="155.69" timeLoss="44.65" maxSpeed="1.45"/>
    </personinfo>
    <personinfo id="ped_WE.2" depart="120.00" type="DEFAULT_PEDTYPE" speedFactor="0.96" duration="156.00" waitingTime="0.00" timeLoss="38.71" traveltime="156.00">
        <walk depart="120.00" departPos="0.00" arrival="276.00" arrivalPos="44.80" duration="156.00" routeLength="155.69" timeLoss="38.71" maxSpeed="1.33"/>
    </personinfo>
    <tripinfo id="NS_wakeup_car.4" depart="229.00" departLane="-E7_1" departPos="4.60" departSpeed="0.00" departDelay="1.00" arrival="281.00" arrivalLane="E8_2" arrivalPos="89.60" arrivalSpeed="13.01" duration="52.00" routeLength="195.40" waitingTime="27.00" waitingCount="1" stopTime="0.00" timeLoss="37.80" rerouteNo="0" devices="vehroute_NS_wakeup_car.4 tripinfo_NS_wakeup_car.4 routing_NS_wakeup_car.4" vType="car" speedFactor="1.12" vaporized=""/>
    <tripinfo id="NS_wakeup_moto.1" depart="226.00" departLane="-E7_1" departPos="2.10" departSpeed="0.00" departDelay="0.00" arrival="282.00" arrivalLane="E8_1" arrivalPos="89.60" arrivalSpeed="11.44" duration="56.00" routeLength="197.90" waitingTime="31.00" waitingCount="1" stopTime="0.00" timeLoss="39.68" rerouteNo="0" devices="vehroute_NS_wakeup_moto.1 tripinfo_NS_wakeup_moto.1 routing_NS_wakeup_moto.1" vType="motorcycle" speedFactor="0.90" vaporized=""/>
    <tripinfo id="NS_wakeup_moto_left.0" depart="262.00" departLane="-E7_1" departPos="2.10" departSpeed="0.00" departDelay="0.00" arrival="285.00" arrivalLane="E5_2" arrivalPos="89.60" arrivalSpeed="12.14" duration="23.00" routeLength="196.45" waitingTime="0.00" waitingCount="0" stopTime="0.00" timeLoss="7.68" rerouteNo="0" devices="vehroute_NS_wakeup_moto_left.0 tripinfo_NS_wakeup_moto_left.0 routing_NS_wakeup_moto_left.0" vType="motorcycle" speedFactor="1.10" vaporized=""/>
    <tripinfo id="NS_wakeup_car.5" depart="269.00" departLane="-E7_1" departPos="4.60" departSpeed="0.00" departDelay="0.00" arrival="290.00" arrivalLane="E8_1" arrivalPos="89.60" arrivalSpeed="12.19" duration="21.00" routeLength="195.40" waitingTime="0.00" waitingCount="0" stopTime="0.00" timeLoss="4.27" rerouteNo="0" devices="vehroute_NS_wakeup_car.5 tripinfo_NS_wakeup_car.5 routing_NS_wakeup_car.5" vType="car" speedFactor="0.89" vaporized=""/>
    <tripinfo id="SN_wakeup_car_right.1" depart="274.00" departLane="-E8_1" departPos="4.60" departSpeed="0.00" departDelay="0.00" arrival="295.00" arrivalLane="E5_1" arrivalPos="89.60" arrivalSpeed="13.38" duration="21.00" routeLength="183.63" waitingTime="0.00" waitingCount="0" stopTime="0.00" timeLoss="6.36" rerouteNo="0" devices="vehroute_SN_wakeup_car_right.1 tripinfo_SN_wakeup_car_right.1 routing_SN_wakeup_car_right.1" vType="car" speedFactor="1.10" vaporized=""/>
    <tripinfo id="NS_wakeup_truck.0" depart="273.00" departLane="-E7_1" departPos="7.10" departSpeed="0.00" departDelay="1.00" arrival="296.00" arrivalLane="E8_1" arrivalPos="89.60" arrivalSpeed="11.10" duration="23.00" routeLength="192.90" waitingTime="0.00" waitingCount="0" stopTime="0.00" timeLoss="4.92" rerouteNo="0" devices="vehroute_NS_wakeup_truck.0 tripinfo_NS_wakeup_truck.0 routing_NS_wakeup_truck.0" vType="truck" speedFactor="0.99" vaporized=""/>
    <tripinfo id="NS_wakeup_moto.2" depart="276.00" departLane="-E7_1" departPos="2.10" departSpeed="0.00" departDelay="2.00" arrival="296.00" arrivalLane="E8_2" arrivalPos="89.60" arrivalSpeed="12.48" duration="20.00" routeLength="197.90" waitingTime="0.00" waitingCount="0" stopTime="0.00" timeLoss="3.95" rerouteNo="0" devices="vehroute_NS_wakeup_moto.2 tripinfo_NS_wakeup_moto.2 routing_NS_wakeup_moto.2" vType="motorcycle" speedFactor="0.93" vaporized=""/>
    <personinfo id="ped_WE.3" depart="180.00" type="DEFAULT_PEDTYPE" speedFactor="1.08" duration="117.00" waitingTime="0.00" timeLoss="13.03" traveltime="117.00">
        <walk depart="180.00" departPos="0.00" arrival="297.00" arrivalPos="44.80" duration="117.00" routeLength="155.69" timeLoss="13.03" maxSpeed="1.50"/>
    </personinfo>
    <tripinfo id="SN_wakeup_moto.1" depart="276.00" departLane="-E8_1" departPos="2.10" departSpeed="0.00" departDelay="2.00" arrival="297.00" arrivalLane="E7_2" arrivalPos="89.60" arrivalSpeed="10.72" duration="21.00" routeLength="197.90" waitingTime="0.00" waitingCount="0" stopTime="0.00" timeLoss="4.91" rerouteNo="0" devices="vehroute_SN_wakeup_moto.1 tripinfo_SN_wakeup_moto.1 routing_SN_wakeup_moto.1" vType="motorcycle" speedFactor="0.90" vaporized=""/>
    <tripinfo id="SN_wakeup_car.1" depart="292.00" departLane="-E8_1" departPos="4.60" departSpeed="0.00" departDelay="0.00" arrival="310.00" arrivalLane="E7_1" arrivalPos="89.60" arrivalSpeed="12.71" duration="18.00" routeLength="195.40" waitingTime="0.00" waitingCount="0" stopTime="0.00" timeLoss="3.10" rerouteNo="0" devices="vehroute_SN_wakeup_car.1 tripinfo_SN_wakeup_car.1 routing_SN_wakeup_car.1" vType="car" speedFactor="0.96" vaporized=""/>
    <tripinfo id="NS_wakeup_car.6" depart="290.00" departLane="-E7_1" departPos="4.60" departSpeed="0.00" departDelay="0.00" arrival="311.00" arrivalLane="E8_1" arrivalPos="89.60" arrivalSpeed="10.69" duration="21.00" routeLength="195.40" waitingTime="0.00" waitingCount="0" stopTime="0.00" timeLoss="3.39" rerouteNo="0" devices="vehroute_NS_wakeup_car.6 tripinfo_NS_wakeup_car.6 routing_NS_wakeup_car.6" vType="car" speedFactor="0.82" vaporized=""/>
    <personinfo id="ped_NS.3" depart="180.00" type="DEFAULT_PEDTYPE" speedFactor="0.98" duration="140.00" waitingTime="0.00" timeLoss="25.53" traveltime="140.00">
        <walk depart="180.00" departPos="0.00" arrival="320.00" arrivalPos="44.80" duration="140.00" routeLength="155.69" timeLoss="25.53" maxSpeed="1.36"/>
    </personinfo>
    <tripinfo id="EW_wakeup_moto.0" depart="264.00" departLane="-E5_1" departPos="2.10" departSpeed="0.00" departDelay="0.00" arrival="326.00" arrivalLane="E6_1" arrivalPos="89.60" arrivalSpeed="12.88" duration="62.00" routeLength="197.90" waitingTime="39.00" waitingCount="1" stopTime="0.00" timeLoss="47.25" rerouteNo="0" devices="vehroute_EW_wakeup_moto.0 tripinfo_EW_wakeup_moto.0 routing_EW_wakeup_moto.0" vType="motorcycle" speedFactor="1.02" vaporized=""/>
    <tripinfo id="WE_wakeup_car.2" depart="266.00" departLane="-E6_1" departPos="4.60" departSpeed="0.00" departDelay="0.00" arrival="326.00" arrivalLane="E5_1" arrivalPos="89.60" arrivalSpeed="13.05" duration="60.00" routeLength="195.40" waitingTime="35.00" waitingCount="1" stopTime="0.00" timeLoss="44.42" rerouteNo="0" devices="vehroute_WE_wakeup_car.2 tripinfo_WE_wakeup_car.2 routing_WE_wakeup_car.2" vType="car" speedFactor="0.95" vaporized=""/>
    <tripinfo id="WE_wakeup_moto.1" depart="303.00" departLane="-E6_1" departPos="2.10" departSpeed="0.00" departDelay="0.00" arrival="326.00" arrivalLane="E5_2" arrivalPos="89.60" arrivalSpeed="11.52" duration="23.00" routeLength="197.90" waitingTime="0.00" waitingCount="0" stopTime="0.00" timeLoss="6.41" rerouteNo="0" devices="vehroute_WE_wakeup_moto.1 tripinfo_WE_wakeup_moto.1 routing_WE_wakeup_moto.1" vType="motorcycle" speedFactor="0.90" vaporized=""/>
    <personinfo id="ped_SN.3" depart="180.00" type="DEFAULT_PEDTYPE" speedFactor="0.86" duration="147.00" waitingTime="0.00" timeLoss="17.04" traveltime="147.00">
        <walk depart="180.00" departPos="0.00" arrival="327.00" arrivalPos="44.80" duration="147.00" routeLength="155.69" timeLoss="17.04" maxSpeed="1.20"/>
    </personinfo>
    <personinfo id="ped_WE.4" depart="240.00" type="DEFAULT_PEDTYPE" speedFactor="1.07" duration="121.00" waitingTime="0.00" timeLoss="16.34" traveltime="121.00">
        <walk depart="240.00" departPos="0.00" arrival="361.00" arrivalPos="44.80" duration="121.00" routeLength="155.69" timeLoss="16.34" maxSpeed="1.49"/>
    </personinfo>
    <personinfo id="ped_EW.4" depart="240.00" type="DEFAULT_PEDTYPE" speedFactor="1.05" duration="122.00" waitingTime="0.00" timeLoss="15.02" traveltime="122.00">
        <walk depart="240.00" departPos="0.00" arrival="362.00" arrivalPos="44.80" duration="122.00" routeLength="155.69" timeLoss="15.02" maxSpeed="1.46"/>
    </personinfo>
    <tripinfo id="WE_wakeup_moto.2" depart="348.00" departLane="-E6_1" departPos="2.10" departSpeed="0.00" departDelay="0.00" arrival="366.00" arrivalLane="E5_1" arrivalPos="89.60" arrivalSpeed="12.38" duration="18.00" routeLength="197.90" waitingTime="0.00" waitingCount="0" stopTime="0.00" timeLoss="3.32" rerouteNo="0" devices="vehroute_WE_wakeup_moto.2 tripinfo_WE_wakeup_moto.2 routing_WE_wakeup_moto.2" vType="motorcycle" speedFactor="1.18" vaporized=""/>
    <personinfo id="ped_EW.3" depart="180.00" type="DEFAULT_PEDTYPE" speedFactor="0.91" duration="188.00" waitingTime="0.00" timeLoss="65.43" traveltime="188.00">
        <walk depart="180.00" departPos="0.00" arrival="368.00" arrivalPos="44.80" duration="188.00" routeLength="155.69" timeLoss="65.43" maxSpeed="1.27"/>
    </personinfo>
    <tripinfo id="SN_wakeup_moto.2" depart="315.00" departLane="-E8_1" departPos="2.10" departSpeed="0.00" departDelay="0.00" arrival="371.00" arrivalLane="E7_1" arrivalPos="89.60" arrivalSpeed="12.82" duration="56.00" routeLength="197.90" waitingTime="29.00" waitingCount="1" stopTime="0.00" timeLoss="41.27" rerouteNo="0" devices="vehroute_SN_wakeup_moto.2 tripinfo_SN_wakeup_moto.2 routing_SN_wakeup_moto.2" vType="motorcycle" speedFactor="1.00" vaporized=""/>
    <tripinfo id="NS_wakeup_moto.3" depart="341.00" departLane="-E7_1" departPos="2.10" departSpeed="0.00" departDelay="0.00" arrival="371.00" arrivalLane="E8_1" arrivalPos="89.60" arrivalSpeed="12.35" duration="30.00" routeLength="197.90" waitingTime="6.00" waitingCount="1" stopTime="0.00" timeLoss="14.59" rerouteNo="0" devices="vehroute_NS_wakeup_moto.3 tripinfo_NS_wakeup_moto.3 routing_NS_wakeup_moto.3" vType="motorcycle" speedFactor="0.95" vaporized=""/>
    <tripinfo id="NS_wakeup_car.7" depart="372.00" departLane="-E7_1" departPos="4.60" departSpeed="0.00" departDelay="0.00" arrival="390.00" arrivalLane="E8_1" arrivalPos="89.60" arrivalSpeed="13.85" duration="18.00" routeLength="195.40" waitingTime="0.00" waitingCount="0" stopTime="0.00" timeLoss="3.59" rerouteNo="0" devices="vehroute_NS_wakeup_car.7 tripinfo_NS_wakeup_car.7 routing_NS_wakeup_car.7" vType="car" speedFactor="1.01" vaporized=""/>
    <personinfo id="ped_NS.4" depart="240.00" type="DEFAULT_PEDTYPE" speedFactor="1.10" duration="164.00" waitingTime="0.00" timeLoss="62.48" traveltime="164.00">
        <walk depart="240.00" departPos="0.00" arrival="404.00" arrivalPos="44.80" duration="164.00" routeLength="155.69" timeLoss="62.48" maxSpeed="1.53"/>
    </personinfo>
    <tripinfo id="NS_wakeup_car.8" depart="384.00" departLane="-E7_1" departPos="4.60" departSpeed="0.00" departDelay="0.00" arrival="404.00" arrivalLane="E8_1" arrivalPos="89.60" arrivalSpeed="11.31" duration="20.00" routeLength="195.40" waitingTime="0.00" waitingCount="0" stopTime="0.00" timeLoss="3.62" rerouteNo="0" devices="vehroute_NS_wakeup_car.8 tripinfo_NS_wakeup_car.8 routing_NS_wakeup_car.8" vType="car" speedFactor="0.86" vaporized=""/>
    <personinfo id="ped_SN.4" depart="240.00" type="DEFAULT_PEDTYPE" speedFactor="0.94" duration="173.00" waitingTime="0.00" timeLoss="53.13" traveltime="173.00">
        <walk depart="240.00" departPos="0.00" arrival="413.00" arrivalPos="44.80" duration="173.00" routeLength="155.69" timeLoss="53.13" maxSpeed="1.30"/>
    </personinfo>
    <tripinfo id="EW_wakeup_moto.1" depart="389.00" departLane="-E5_1" departPos="2.10" departSpeed="0.00" departDelay="0.00" arrival="416.00" arrivalLane="E6_1" arrivalPos="89.60" arrivalSpeed="12.31" duration="27.00" routeLength="197.90" waitingTime="3.00" waitingCount="1" stopTime="0.00" timeLoss="11.46" rerouteNo="0" devices="vehroute_EW_wakeup_moto.1 tripinfo_EW_wakeup_moto.1 routing_EW_wakeup_moto.1" vType="motorcycle" speedFactor="0.94" vaporized=""/>
    <personinfo id="ped_SN.5" depart="300.00" type="DEFAULT_PEDTYPE" speedFactor="1.08" duration="117.00" waitingTime="0.00" timeLoss="13.44" traveltime="117.00">
        <walk depart="300.00" departPos="0.00" arrival="417.00" arrivalPos="44.80" duration="117.00" routeLength="155.69" timeLoss="13.44" maxSpeed="1.50"/>
    </personinfo>
    <tripinfo id="WE_wakeup_car_right.0" depart="399.00" departLane="-E6_1" departPos="4.60" departSpeed="0.00" departDelay="0.00" arrival="420.00" arrivalLane="E8_1" arrivalPos="89.60" arrivalSpeed="13.85" duration="21.00" routeLength="183.63" waitingTime="0.00" waitingCount="0" stopTime="0.00" timeLoss="6.20" rerouteNo="0" devices="vehroute_WE_wakeup_car_right.0 tripinfo_WE_wakeup_car_right.0 routing_WE_wakeup_car_right.0" vType="car" speedFactor="1.00" vaporized=""/>
    <tripinfo id="EW_wakeup_car.0" depart="401.00" departLane="-E5_1" departPos="4.60" departSpeed="0.00" departDelay="0.00" arrival="420.00" arrivalLane="E6_1" arrivalPos="89.60" arrivalSpeed="12.06" duration="19.00" routeLength="195.40" waitingTime="0.00" waitingCount="0" stopTime="0.00" timeLoss="3.77" rerouteNo="0" devices="vehroute_EW_wakeup_car.0 tripinfo_EW_wakeup_car.0 routing_EW_wakeup_car.0" vType="car" speedFactor="0.95" vaporized=""/>
    <personinfo id="ped_NS.5" depart="300.00" type="DEFAULT_PEDTYPE" speedFactor="1.02" duration="121.00" waitingTime="0.00" timeLoss="11.57" traveltime="121.00">
        <walk depart="300.00" departPos="0.00" arrival="421.00" arrivalPos="44.80" duration="121.00" routeLength="155.69" timeLoss="11.57" maxSpeed="1.42"/>
    </personinfo>
    <tripinfo id="WE_wakeup_car_right.1" depart="412.00" departLane="-E6_1" departPos="4.60" departSpeed="0.00" departDelay="0.00" arrival="434.00" arrivalLane="E8_1" arrivalPos="89.60" arrivalSpeed="11.78" duration="22.00" routeLength="183.63" waitingTime="0.00" waitingCount="0" stopTime="0.00" timeLoss="5.26" rerouteNo="0" devices="vehroute_WE_wakeup_car_right.1 tripinfo_WE_wakeup_car_right.1 routing_WE_wakeup_car_right.1" vType="car" speedFactor="0.86" vaporized=""/>
    <tripinfo id="EW_wakeup_car.1" depart="426.00" departLane="-E5_1" departPos="4.60" departSpeed="0.00" departDelay="0.00" arrival="445.00" arrivalLane="E6_1" arrivalPos="89.60" arrivalSpeed="13.24" duration="19.00" routeLength="195.40" waitingTime="0.00" waitingCount="0" stopTime="0.00" timeLoss="4.16" rerouteNo="0" devices="vehroute_EW_wakeup_car.1 tripinfo_EW_wakeup_car.1 routing_EW_wakeup_car.1" vType="car" speedFactor="1.09" vaporized=""/>
    <personinfo id="ped_EW.5" depart="300.00" type="DEFAULT_PEDTYPE" speedFactor="1.05" duration="152.00" waitingTime="0.00" timeLoss="44.85" traveltime="152.00">
        <walk depart="300.00" departPos="0.00" arrival="452.00" arrivalPos="44.80" duration="152.00" routeLength="155.69" timeLoss="44.85" maxSpeed="1.45"/>
    </personinfo>
    <personinfo id="ped_WE.5" depart="300.00" type="DEFAULT_PEDTYPE" speedFactor="0.97" duration="156.00" waitingTime="0.00" timeLoss="40.58" traveltime="156.00">
        <walk depart="300.00" departPos="0.00" arrival="456.00" arrivalPos="44.80" duration="156.00" routeLength="155.69" timeLoss="40.58" maxSpeed="1.35"/>
    </personinfo>
    <tripinfo id="NS_wakeup_car.9" depart="396.00" departLane="-E7_1" departPos="4.60" departSpeed="0.00" departDelay="0.00" arrival="461.00" arrivalLane="E8_1" arrivalPos="89.60" arrivalSpeed="13.79" duration="65.00" routeLength="195.40" waitingTime="40.00" waitingCount="1" stopTime="0.00" timeLoss="50.21" rerouteNo="0" devices="vehroute_NS_wakeup_car.9 tripinfo_NS_wakeup_car.9 routing_NS_wakeup_car.9" vType="car" speedFactor="1.12" vaporized=""/>
    <tripinfo id="NS_wakeup_moto_right.0" depart="438.00" departLane="-E7_1" departPos="2.10" departSpeed="0.00" departDelay="0.00" arrival="463.00" arrivalLane="E6_1" arrivalPos="89.60" arrivalSpeed="12.74" duration="25.00" routeLength="186.13" waitingTime="0.00" waitingCount="0" stopTime="0.00" timeLoss="10.16" rerouteNo="0" devices="vehroute_NS_wakeup_moto_right.0 tripinfo_NS_wakeup_moto_right.0 routing_NS_wakeup_moto_right.0" vType="motorcycle" speedFactor="1.05" vaporized=""/>