<?xml version="1.0" encoding="UTF-8"?>

<!-- generated on 2025-03-26 16:52:22 by Eclipse SUMO GUI Version 1.22.0
<sumoConfiguration xmlns:xsi="http://www.w3.org/2001/XMLSchema-instance" xsi:noNamespaceSchemaLocation="http://sumo.dlr.de/xsd/sumoConfiguration.xsd">

    <input>
        <net-file value="app/cross.net.xml"/>
        <route-files value="app/vehicles.rou.xml"/>
    </input>

    <output>
        <queue-output value="app/statistiche/queue.xml"/>
        <summary-output value="app/statistiche/summary.xml"/>
        <tripinfo-output value="app/statistiche/tripinfo.xml"/>
        <vehroute-output value="app/statistiche/vehroute.xml"/>
    </output>

    <time>
        <begin value="0"/>
        <end value="86400"/>
    </time>

    <processing>
        <collision.action value="warn"/>
        <collision.stoptime value="1800"/>
        <collision.check-junctions value="true"/>
        <time-to-teleport value="-1"/>
    </processing>

    <report>
        <no-warnings value="true"/>
    </report>

    <traci_server>
        <remote-port value="56489"/>
    </traci_server>

    <random_number>
        <random value="true"/>
        <seed value="1742988170"/>
    </random_number>

    <gui_only>
        <gui-settings-file value="app/view.port.xml"/>
        <start value="true"/>
        <delay value="100"/>
    </gui_only>

</sumoConfiguration>
-->

<routes xmlns:xsi="http://www.w3.org/2001/XMLSchema-instance" xsi:noNamespaceSchemaLocation="http://sumo.dlr.de/xsd/routes_file.xsd">
    <vehicle id="NS_wakeup_car.0" type="car" depart="28.00" arrival="47.00">
        <route edges="-E7 E8"/>
    </vehicle>

    <vehicle id="EW_wakeup_car_right.0" type="car" depart="51.00" arrival="72.00">
        <route edges="-E5 E7"/>
    </vehicle>

    <vehicle id="SN_wakeup_car.0" type="car" depart="79.00" arrival="100.00">
        <route edges="-E8 E7"/>
    </vehicle>

    <vehicle id="SN_wakeup_moto_right.0" type="motorcycle" depart="44.00" arrival="101.00">
        <route edges="-E8 E5"/>
    </vehicle>

    <person id="ped_WE.0" depart="0.00" arrival="119.00">
        <walk edges="-E6 E5"/>
    </person>

    <vehicle id="NS_wakeup_delivery.0" type="delivery" depart="103.00" arrival="127.00">
        <route edges="-E7 E8"/>
    </vehicle>

    <person id="ped_EW.0" depart="0.00" arrival="128.00">
        <walk edges="-E5 E6"/>
    </person>

    <person id="ped_SN.0" depart="0.00" arrival="136.00">
        <walk edges="-E8 E7"/>
    </person>

    <person id="ped_NS.0" depart="0.00" arrival="139.00">
        <walk edges="-E7 E8"/>
    </person>

    <vehicle id="WE_wakeup_moto.0" type="motorcycle" depart="87.00" arrival="146.00">
        <route edges="-E6 E5"/>
    </vehicle>

    <vehicle id="EW_wakeup_delivery.0" type="delivery" depart="83.00" arrival="149.00">
        <route edges="-E5 E6"/>
    </vehicle>

    <vehicle id="WE_wakeup_car.0" type="car" depart="132.00" arrival="152.00">
        <route edges="-E6 E5"/>
    </vehicle>

    <vehicle id="WE_wakeup_car.1" type="car" depart="145.00" arrival="163.00">
        <route edges="-E6 E5"/>
    </vehicle>

    <person id="ped_WE.1" depart="60.00" arrival="187.00">
        <walk edges="-E6 E5"/>
    </person>

    <vehicle id="SN_wakeup_car_right.0" type="car" depart="150.00" arrival="191.00">
        <route edges="-E8 E5"/>
    </vehicle>

    <vehicle id="NS_wakeup_car.1" type="car" depart="154.00" arrival="191.00">
        <route edges="-E7 E8"/>
    </vehicle>

    <vehicle id="NS_wakeup_car.2" type="car" depart="157.00" arrival="191.00">
        <route edges="-E7 E8"/>
    </vehicle>

    <vehicle id="NS_wakeup_car.3" type="car" depart="162.00" arrival="193.00">
        <route edges="-E7 E8"/>
    </vehicle>

    <vehicle id="SN_wakeup_car_left.0" type="car" depart="135.00" arrival="198.00">
        <route edges="-E8 E6"/>
    </vehicle>

    <vehicle id="SN_wakeup_truck.0" type="truck" depart="187.00" arrival="209.00">
        <route edges="-E8 E7"/>
    </vehicle>

    <vehicle id="NS_wakeup_moto.0" type="motorcycle" depart="195.00" arrival="213.00">
        <route edges="-E7 E8"/>
    </vehicle>

    <vehicle id="SN_wakeup_moto.0" type="motorcycle" depart="195.00" arrival="214.00">
        <route edges="-E8 E7"/>
    </vehicle>

    <person id="ped_EW.1" depart="60.00" arrival="217.00">
        <walk edges="-E5 E6"/>
    </person>

    <person id="ped_NS.1" depart="60.00" arrival="227.00">
        <walk edges="-E7 E8"/>
    </person>

    <person id="ped_SN.1" depart="60.00" arrival="232.00">
        <walk edges="-E8 E7"/>
    </person>

    <vehicle id="EW_wakeup_car_right.1" type="car" depart="217.00" arrival="238.00">
        <route edges="-E5 E7"/>
    </vehicle>

    <person id="ped_NS.2" depart="120.00" arrival="239.00">
        <walk edges="-E7 E8"/>
    </person>

    <person id="ped_SN.2" depart="120.00" arrival="240.00">
        <walk edges="-E8 E7"/>
    </person>

    <vehicle id="WE_wakeup_truck.0" type="truck" depart="231.00" arrival="253.00">
        <route edges="-E6 E5"/>
    </vehicle>

    <person id="ped_EW.2" depart="120.00" arrival="272.00">
        <walk edges="-E5 E6"/>
    </person>

    <person id="ped_WE.2" depart="120.00" arrival="276.00">
        <walk edges="-E6 E5"/>
    </person>

    <vehicle id="NS_wakeup_car.4" type="car" depart="229.00" arrival="281.00">
        <route edges="-E7 E8"/>
    </vehicle>

    <vehicle id="NS_wakeup_moto.1" type="motorcycle" depart="226.00" arrival="282.00">
        <route edges="-E7 E8"/>
    </vehicle>

    <vehicle id="NS_wakeup_moto_left.0" type="motorcycle" depart="262.00" arrival="285.00">
        <route edges="-E7 E5"/>
    </vehicle>

    <vehicle id="NS_wakeup_car.5" type="car" depart="269.00" arrival="290.00">
        <route edges="-E7 E8"/>
    </vehicle>

    <vehicle id="SN_wakeup_car_right.1" type="car" depart="274.00" arrival="295.00">
        <route edges="-E8 E5"/>
    </vehicle>

    <vehicle id="NS_wakeup_truck.0" type="truck" depart="273.00" arrival="296.00">
        <route edges="-E7 E8"/>
    </vehicle>

    <vehicle id="NS_wakeup_moto.2" type="motorcycle" depart="276.00" arrival="296.00">
        <route edges="-E7 E8"/>
    </vehicle>

    <person id="ped_WE.3" depart="180.00" arrival="297.00">
        <walk edges="-E6 E5"/>
    </person>

    <vehicle id="SN_wakeup_moto.1" type="motorcycle" depart="276.00" arrival="297.00">
        <route edges="-E8 E7"/>
    </vehicle>

    <vehicle id="SN_wakeup_car.1" type="car" depart="292.00" arrival="310.00">
        <route edges="-E8 E7"/>
    </vehicle>

    <vehicle id="NS_wakeup_car.6" type="car" depart="290.00" arrival="311.00">
        <route edges="-E7 E8"/>
    </vehicle>

    <person id="ped_NS.3" depart="180.00" arrival="320.00">
        <walk edges="-E7 E8"/>
    </person>

    <vehicle id="EW_wakeup_moto.0" type="motorcycle" depart="264.00" arrival="326.00">
        <route edges="-E5 E6"/>
    </vehicle>

    <vehicle id="WE_wakeup_car.2" type="car" depart="266.00" arrival="326.00">
        <route edges="-E6 E5"/>
    </vehicle>

    <vehicle id="WE_wakeup_moto.1" type="motorcycle" depart="303.00" arrival="326.00">
        <route edges="-E6 E5"/>
    </vehicle>

    <person id="ped_SN.3" depart="180.00" arrival="327.00">
        <walk edges="-E8 E7"/>
    </person>

    <person id="ped_WE.4" depart="240.00" arrival="361.00">
        <walk edges="-E6 E5"/>
    </person>

    <person id="ped_EW.4" depart="240.00" arrival="362.00">
        <walk edges="-E5 E6"/>
    </person>

    <vehicle id="WE_wakeup_moto.2" type="motorcycle" depart="348.00" arrival="366.00">
        <route edges="-E6 E5"/>
    </vehicle>

    <person id="ped_EW.3" depart="180.00" arrival="368.00">
        <walk edges="-E5 E6"/>
    </person>

    <vehicle id="SN_wakeup_moto.2" type="motorcycle" depart="315.00" arrival="371.00">
        <route edges="-E8 E7"/>
    </vehicle>

    <vehicle id="NS_wakeup_moto.3" type="motorcycle" depart="341.00" arrival="371.00">
        <route edges="-E7 E8"/>
    </vehicle>

    <vehicle id="NS_wakeup_car.7" type="car" depart="372.00" arrival="390.00">
        <route edges="-E7 E8"/>
    </vehicle>

    <person id="ped_NS.4" depart="240.00" arrival="404.00">
        <walk edges="-E7 E8"/>
    </person>

    <vehicle id="NS_wakeup_car.8" type="car" depart="384.00" arrival="404.00">
        <route edges="-E7 E8"/>
    </vehicle>

    <person id="ped_SN.4" depart="240.00" arrival="413.00">
        <walk edges="-E8 E7"/>
    </person>

    <vehicle id="EW_wakeup_moto.1" type="motorcycle" depart="389.00" arrival="416.00">
        <route edges="-E5 E6"/>
    </vehicle>

    <person id="ped_SN.5" depart="300.00" arrival="417.00">
        <walk edges="-E8 E7"/>
    </person>

    <vehicle id="WE_wakeup_car_right.0" type="car" depart="399.00" arrival="420.00">
        <route edges="-E6 E8"/>
    </vehicle>

    <vehicle id="EW_wakeup_car.0" type="car" depart="401.00" arrival="420.00">
        <route edges="-E5 E6"/>
    </vehicle>

    <person id="ped_NS.5" depart="300.00" arrival="421.00">
        <walk edges="-E7 E8"/>
    </person>

    <vehicle id="WE_wakeup_car_right.1" type="car" depart="412.00" arrival="434.00">
        <route edges="-E6 E8"/>
    </vehicle>

    <vehicle id="EW_wakeup_car.1" type="car" depart="426.00" arrival="445.00">
        <route edges="-E5 E6"/>
    </vehicle>

    <person id="ped_EW.5" depart="300.00" arrival="452.00">
        <walk edges="-E5 E6"/>
    </person>

    <person id="ped_WE.5" depart="300.00" arrival="456.00">
        <walk edges="-E6 E5"/>
    </person>

    <vehicle id="NS_wakeup_car.9" type="car" depart="396.00" arrival="461.00">
        <route edges="-E7 E8"/>
    </vehicle>

    <vehicle id="NS_wakeup_moto_right.0" type="motorcycle" depart="438.00" arrival="463.00">
        <route edges="-E7 E6"/>
    </vehicle>

    <vehicle id="SN_wakeup_moto_right.1" type="motorcycle" depart="449.00" arrival="471.00">
        <route edges="-E8 E5"/>
    </vehicle>

    <person id="ped_WE.6" depart="360.00" arrival="480.00">
        <walk edges="-E6 E5"/>
    </person>

    <person id="ped_SN.6" depart="360.00" arrival="495.00">
        <walk edges="-E8 E7"/>
    </person>

    <person id="ped_NS.6" depart="360.00" arrival="495.00">
        <walk edges="-E7 E8"/>
    </person>

    <vehicle id="EW_wakeup_moto.2" type="motorcycle" depart="470.00" arrival="507.00">
        <route edges="-E5 E6"/>
    </vehicle>

    <person id="ped_EW.6" depart="360.00" arrival="547.00">
        <walk edges="-E5 E6"/>
    </person>

    <person id="ped_WE.7" depart="420.00" arrival="551.00">
        <walk edges="-E6 E5"/>
    </person>

    <vehicle id="SN_wakeup_car.2" type="car" depart="506.00" arrival="551.00">
        <route edges="-E8 E7"/>
    </vehicle>

    <vehicle id="SN_wakeup_moto.3" type="motorcycle" depart="508.00" arrival="551.00">
        <route edges="-E8 E7"/>
    </vehicle>

    <vehicle id="NS_wakeup_moto.4" type="motorcycle" depart="536.00" arrival="555.00">
        <route edges="-E7 E8"/>
    </vehicle>

    <vehicle id="NS_wakeup_bus.0" type="bus" depart="495.00" arrival="557.00">
        <route edges="-E7 E8"/>
    </vehicle>

    <person id="ped_EW.7" depart="420.00" arrival="578.00">
        <walk edges="-E5 E6"/>
    </person>

    <person id="ped_SN.7" depart="420.00" arrival="585.00">
        <walk edges="-E8 E7"/>
    </person>

    <person id="ped_NS.7" depart="420.00" arrival="585.00">
        <walk edges="-E7 E8"/>
    </person>

    <person id="ped_NS.8" depart="480.00" arrival="597.00">
        <walk edges="-E7 E8"/>
    </person>

    <person id="ped_SN.8" depart="480.00" arrival="599.00">
        <walk edges="-E8 E7"/>
    </person>

    <vehicle id="WE_wakeup_truck.1" type="truck" depart="532.00" arrival="599.00">
        <route edges="-E6 E5"/>
    </vehicle>

    <vehicle id="WE_wakeup_car.3" type="car" depart="585.00" arrival="604.00">
        <route edges="-E6 E5"/>
    </vehicle>

    <vehicle id="EW_wakeup_car.2" type="car" depart="598.00" arrival="616.00">
        <route edges="-E5 E6"/>
    </vehicle>

    <person id="ped_EW.8" depart="480.00" arrival="634.00">
        <walk edges="-E5 E6"/>
    </person>

    <vehicle id="NS_wakeup_car.10" type="car" depart="598.00" arrival="640.00">
        <route edges="-E7 E8"/>
    </vehicle>

    <vehicle id="SN_wakeup_moto.4" type="motorcycle" depart="598.00" arrival="643.00">
        <route edges="-E8 E7"/>
    </vehicle>

    <vehicle id="SN_wakeup_moto_left.0" type="motorcycle" depart="592.00" arrival="645.00">
        <route edges="-E8 E6"/>
    </vehicle>

    <vehicle id="SN_wakeup_car.3" type="car" depart="619.00" arrival="645.00">
        <route edges="-E8 E7"/>
    </vehicle>

    <person id="ped_WE.8" depart="480.00" arrival="649.00">
        <walk edges="-E6 E5"/>
    </person>

    <person id="ped_EW.9" depart="540.00" arrival="662.00">
        <walk edges="-E5 E6"/>
    </person>

    <vehicle id="SN_wakeup_moto.5" type="motorcycle" depart="647.00" arrival="665.00">
        <route edges="-E8 E7"/>
    </vehicle>

    <vehicle id="SN_wakeup_car.4" type="car" depart="650.00" arrival="672.00">
        <route edges="-E8 E7"/>
    </vehicle>

    <person id="ped_SN.9" depart="540.00" arrival="677.00">
        <walk edges="-E8 E7"/>
    </person>

    <vehicle id="WE_wakeup_car.4" type="car" depart="667.00" arrival="685.00">
        <route edges="-E6 E5"/>
    </vehicle>

    <person id="ped_NS.9" depart="540.00" arrival="688.00">
        <walk edges="-E7 E8"/>
    </person>

    <vehicle id="WE_wakeup_car_right.2" type="car" depart="686.00" arrival="708.00">
        <route edges="-E6 E8"/>
    </vehicle>

    <vehicle id="WE_wakeup_car.5" type="car" depart="692.00" arrival="710.00">
        <route edges="-E6 E5"/>
    </vehicle>

    <person id="ped_EW.10" depart="600.00" arrival="725.00">
        <walk edges="-E5 E6"/>
    </person>

    <vehicle id="SN_wakeup_car.5" type="car" depart="700.00" arrival="731.00">
        <route edges="-E8 E7"/>
    </vehicle>

    <person id="ped_WE.9" depart="540.00" arrival="732.00">
        <walk edges="-E6 E5"/>
    </person>

    <person id="ped_WE.10" depart="600.00" arrival="733.00">
        <walk edges="-E6 E5"/>
    </person>

    <vehicle id="SN_wakeup_truck.1" type="truck" depart="686.00" arrival="734.00">
        <route edges="-E8 E7"/>
    </vehicle>

    <person id="ped_SN.10" depart="600.00" arrival="769.00">
        <walk edges="-E8 E7"/>
    </person>

    <person id="ped_NS.10" depart="600.00" arrival="773.00">
        <walk edges="-E7 E8"/>
    </person>

    <person id="ped_SN.11" depart="660.00" arrival="774.00">
        <walk edges="-E8 E7"/>
    </person>

    <vehicle id="WE_wakeup_car_right.3" type="car" depart="750.00" arrival="776.00">
        <route edges="-E6 E8"/>
    </vehicle>

    <vehicle id="WE_wakeup_car.6" type="car" depart="770.00" arrival="788.00">
        <route edges="-E6 E5"/>
    </vehicle>

    <person id="ped_NS.11" depart="660.00" arrival="806.00">
        <walk edges="-E7 E8"/>
    </person>

    <person id="ped_WE.11" depart="660.00" arrival="810.00">
        <walk edges="-E6 E5"/>
    </person>

    <person id="ped_EW.11" depart="660.00" arrival="813.00">
        <walk edges="-E5 E6"/>
    </person>

    <vehicle id="NS_wakeup_car.11" type="car" depart="762.00" arrival="823.00">
        <route edges="-E7 E8"/>
    </vehicle>

    <vehicle id="SN_wakeup_car.6" type="car" depart="820.00" arrival="840.00">
        <route edges="-E8 E7"/>
    </vehicle>

    <person id="ped_WE.12" depart="720.00" arrival="841.00">
        <walk edges="-E6 E5"/>
    </person>

    <vehicle id="NS_wakeup_car.12" type="car" depart="826.00" arrival="845.00">
        <route edges="-E7 E8"/>
    </vehicle>

    <vehicle id="NS_wakeup_bus.1" type="bus" depart="822.00" arrival="850.00">
        <route edges="-E7 E8"/>
    </vehicle>

    <person id="ped_EW.12" depart="720.00" arrival="852.00">
        <walk edges="-E5 E6"/>
    </person>

    <person id="ped_NS.12" depart="720.00" arrival="855.00">
        <walk edges="-E7 E8"/>
    </person>

    <vehicle id="NS_wakeup_car.13" type="car" depart="840.00" arrival="858.00">
        <route edges="-E7 E8"/>
    </vehicle>

    <person id="ped_SN.12" depart="720.00" arrival="861.00">
        <walk edges="-E8 E7"/>
    </person>

    <vehicle id="EW_wakeup_car_right.2" type="car" depart="820.00" arrival="866.00">
        <route edges="-E5 E7"/>
    </vehicle>

    <vehicle id="WE_wakeup_car.7" type="car" depart="849.00" arrival="867.00">
        <route edges="-E6 E5"/>
    </vehicle>

    <vehicle id="WE_wakeup_car_left.0" type="car" depart="860.00" arrival="882.00">
        <route edges="-E6 E7"/>
    </vehicle>

    <person id="ped_EW.13" depart="780.00" arrival="898.00">
        <walk edges="-E5 E6"/>
    </person>

    <vehicle id="EW_wakeup_car.3" type="car" depart="886.00" arrival="904.00">
        <route edges="-E5 E6"/>
    </vehicle>

    <person id="ped_WE.13" depart="780.00" arrival="905.00">
        <walk edges="-E6 E5"/>
    </person>

    <vehicle id="NS_wakeup_car_right.0" type="car" depart="844.00" arrival="911.00">
        <route edges="-E7 E6"/>
    </vehicle>

    <vehicle id="SN_wakeup_car.7" type="car" depart="891.00" arrival="911.00">
        <route edges="-E8 E7"/>
    </vehicle>

    <vehicle id="NS_wakeup_delivery.1" type="delivery" depart="888.00" arrival="912.00">
        <route edges="-E7 E8"/>
    </vehicle>

    <vehicle id="SN_wakeup_moto.6" type="motorcycle" depart="898.00" arrival="917.00">
        <route edges="-E8 E7"/>
    </vehicle>

    <person id="ped_SN.13" depart="780.00" arrival="951.00">
        <walk edges="-E8 E7"/>
    </person>

    <person id="ped_NS.13" depart="780.00" arrival="951.00">
        <walk edges="-E7 E8"/>
    </person>

    <person id="ped_SN.14" depart="840.00" arrival="956.00">
        <walk edges="-E8 E7"/>
    </person>

    <person id="ped_NS.14" depart="840.00" arrival="959.00">
        <walk edges="-E7 E8"/>
    </person>

    <vehicle id="WE_wakeup_car.8" type="car" depart="955.00" arrival="973.00">
        <route edges="-E6 E5"/>
    </vehicle>

    <vehicle id="WE_wakeup_car.9" type="car" depart="958.00" arrival="978.00">
        <route edges="-E6 E5"/>
    </vehicle>

    <person id="ped_WE.14" depart="840.00" arrival="993.00">
        <walk edges="-E6 E5"/>
    </person>

    <person id="ped_EW.15" depart="900.00" arrival="1009.00">
        <walk edges="-E5 E6"/>
    </person>

    <person id="ped_EW.14" depart="840.00" arrival="1010.00">
        <walk edges="-E5 E6"/>
    </person>

    <person id="ped_WE.15" depart="900.00" arrival="1026.00">
        <walk edges="-E6 E5"/>
    </person>

    <vehicle id="NS_wakeup_delivery.2" type="delivery" depart="1013.00" arrival="1037.00">
        <route edges="-E7 E8"/>
    </vehicle>

    <person id="ped_SN.15" depart="900.00" arrival="1039.00">
        <walk edges="-E8 E7"/>
    </person>

    <person id="ped_NS.15" depart="900.00" arrival="1043.00">
        <walk edges="-E7 E8"/>
    </person>

    <vehicle id="WE_wakeup_car_right.4" type="car" depart="987.00" arrival="1046.00">
        <route edges="-E6 E8"/>
    </vehicle>

    <vehicle id="WE_wakeup_car.10" type="car" depart="1043.00" arrival="1062.00">
        <route edges="-E6 E5"/>
    </vehicle>

    <person id="ped_WE.16" depart="960.00" arrival="1081.00">
        <walk edges="-E6 E5"/>
    </person>

    <person id="ped_EW.16" depart="960.00" arrival="1082.00">
        <walk edges="-E5 E6"/>
    </person>

    <vehicle id="WE_wakeup_car.11" type="car" depart="1067.00" arrival="1086.00">
        <route edges="-E6 E5"/>
    </vehicle>

    <vehicle id="NS_wakeup_moto.5" type="motorcycle" depart="1067.00" arrival="1090.00">
        <route edges="-E7 E8"/>
    </vehicle>

    <vehicle id="SN_wakeup_moto.7" type="motorcycle" depart="1062.00" arrival="1091.00">
        <route edges="-E8 E7"/>
    </vehicle>

    <vehicle id="SN_wakeup_car_right.2" type="car" depart="1055.00" arrival="1093.00">
        <route edges="-E8 E5"/>
    </vehicle>

    <vehicle id="SN_wakeup_moto_right.2" type="motorcycle" depart="1060.00" arrival="1095.00">
        <route edges="-E8 E5"/>
    </vehicle>

    <person id="ped_NS.16" depart="960.00" arrival="1123.00">
        <walk edges="-E7 E8"/>
    </person>

    <person id="ped_NS.17" depart="1020.00" arrival="1129.00">
        <walk edges="-E7 E8"/>
    </person>

    <person id="ped_SN.17" depart="1020.00" arrival="1136.00">
        <walk edges="-E8 E7"/>
    </person>

    <vehicle id="EW_wakeup_car.4" type="car" depart="1086.00" arrival="1137.00">
        <route edges="-E5 E6"/>
    </vehicle>

    <person id="ped_SN.16" depart="960.00" arrival="1138.00">
        <walk edges="-E8 E7"/>
    </person>

    <vehicle id="WE_wakeup_truck.2" type="truck" depart="1070.00" arrival="1139.00">
        <route edges="-E6 E5"/>
    </vehicle>

    <person id="ped_WE.17" depart="1020.00" arrival="1170.00">
        <walk edges="-E6 E5"/>
    </person>

    <person id="ped_EW.17" depart="1020.00" arrival="1177.00">
        <walk edges="-E5 E6"/>
    </person>

    <vehicle id="NS_wakeup_car.14" type="car" depart="1121.00" arrival="1181.00">
        <route edges="-E7 E8"/>
    </vehicle>

    <vehicle id="NS_wakeup_moto.6" type="motorcycle" depart="1133.00" arrival="1181.00">
        <route edges="-E7 E8"/>
    </vehicle>

    <person id="ped_EW.18" depart="1080.00" arrival="1183.00">
        <walk edges="-E5 E6"/>
    </person>

    <vehicle id="SN_wakeup_delivery.0" type="delivery" depart="1111.00" arrival="1184.00">
        <route edges="-E8 E7"/>
    </vehicle>

    <person id="ped_NS.18" depart="1080.00" arrival="1216.00">
        <walk edges="-E7 E8"/>
    </person>

    <vehicle id="SN_wakeup_car.8" type="car" depart="1202.00" arrival="1220.00">
        <route edges="-E8 E7"/>
    </vehicle>

    <vehicle id="NS_wakeup_truck.1" type="truck" depart="1199.00" arrival="1221.00">
        <route edges="-E7 E8"/>
    </vehicle>

    <vehicle id="EW_wakeup_moto.3" type="motorcycle" depart="1172.00" arrival="1226.00">
        <route edges="-E5 E6"/>
    </vehicle>

    <person id="ped_SN.18" depart="1080.00" arrival="1230.00">
        <walk edges="-E8 E7"/>
    </person>

    <vehicle id="WE_wakeup_car_left.1" type="car" depart="1195.00" arrival="1230.00">
        <route edges="-E6 E7"/>
    </vehicle>

    <vehicle id="EW_wakeup_car_left.0" type="car" depart="1178.00" arrival="1232.00">
        <route edges="-E5 E8"/>
    </vehicle>

    <vehicle id="WE_wakeup_car.12" type="car" depart="1222.00" arrival="1240.00">
        <route edges="-E6 E5"/>
    </vehicle>

    <person id="ped_EW.19" depart="1140.00" arrival="1257.00">
        <walk edges="-E5 E6"/>
    </person>

    <vehicle id="EW_wakeup_delivery.1" type="delivery" depart="1243.00" arrival="1267.00">
        <route edges="-E5 E6"/>
    </vehicle>

    <person id="ped_WE.19" depart="1140.00" arrival="1269.00">
        <walk edges="-E6 E5"/>
    </person>

    <vehicle id="SN_wakeup_moto.8" type="motorcycle" depart="1240.00" arrival="1271.00">
        <route edges="-E8 E7"/>
    </vehicle>

    <vehicle id="SN_wakeup_moto.9" type="motorcycle" depart="1254.00" arrival="1273.00">
        <route edges="-E8 E7"/>
    </vehicle>

    <vehicle id="SN_wakeup_car.9" type="car" depart="1257.00" arrival="1275.00">
        <route edges="-E8 E7"/>
    </vehicle>

    <person id="ped_WE.18" depart="1080.00" arrival="1276.00">
        <walk edges="-E6 E5"/>
    </person>

    <vehicle id="SN_wakeup_car.10" type="car" depart="1260.00" arrival="1278.00">
        <route edges="-E8 E7"/>
    </vehicle>

    <vehicle id="NS_wakeup_moto.7" type="motorcycle" depart="1261.00" arrival="1279.00">
        <route edges="-E7 E8"/>
    </vehicle>

    <person id="ped_SN.19" depart="1140.00" arrival="1306.00">
        <walk edges="-E8 E7"/>
    </person>

    <person id="ped_NS.19" depart="1140.00" arrival="1307.00">
        <walk edges="-E7 E8"/>
    </person>

    <vehicle id="EW_wakeup_car.5" type="car" depart="1251.00" arrival="1316.00">
        <route edges="-E5 E6"/>
    </vehicle>

    <vehicle id="WE_wakeup_car.14" type="car" depart="1271.00" arrival="1316.00">
        <route edges="-E6 E5"/>
    </vehicle>

    <vehicle id="WE_wakeup_car.13" type="car" depart="1260.00" arrival="1317.00">
        <route edges="-E6 E5"/>
    </vehicle>

    <vehicle id="EW_wakeup_car_left.1" type="car" depart="1263.00" arrival="1322.00">
        <route edges="-E5 E8"/>
    </vehicle>

    <vehicle id="WE_wakeup_car.15" type="car" depart="1305.00" arrival="1323.00">
        <route edges="-E6 E5"/>
    </vehicle>

    <person id="ped_SN.20" depart="1200.00" arrival="1324.00">
        <walk edges="-E8 E7"/>
    </person>

    <person id="ped_NS.20" depart="1200.00" arrival="1330.00">
        <walk edges="-E7 E8"/>
    </person>

    <person id="ped_WE.20" depart="1200.00" arrival="1346.00">
        <walk edges="-E6 E5"/>
    </person>

    <vehicle id="EW_wakeup_moto.4" type="motorcycle" depart="1330.00" arrival="1348.00">
        <route edges="-E5 E6"/>
    </vehicle>

    <person id="ped_EW.20" depart="1200.00" arrival="1353.00">
        <walk edges="-E5 E6"/>
    </person>

    <vehicle id="SN_wakeup_car.11" type="car" depart="1328.00" arrival="1361.00">
        <route edges="-E8 E7"/>
    </vehicle>

    <vehicle id="NS_wakeup_car.15" type="car" depart="1338.00" arrival="1363.00">
        <route edges="-E7 E8"/>
    </vehicle>

    <vehicle id="NS_wakeup_moto_left.1" type="motorcycle" depart="1360.00" arrival="1382.00">
        <route edges="-E7 E5"/>
    </vehicle>

    <person id="ped_EW.21" depart="1260.00" arrival="1393.00">
        <walk edges="-E5 E6"/>
    </person>

    <person id="ped_SN.21" depart="1260.00" arrival="1397.00">
        <walk edges="-E8 E7"/>
    </person>

    <vehicle id="NS_wakeup_moto_right.1" type="motorcycle" depart="1382.00" arrival="1403.00">
        <route edges="-E7 E6"/>
    </vehicle>

    <vehicle id="EW_wakeup_car.6" type="car" depart="1363.00" arrival="1406.00">
        <route edges="-E5 E6"/>
    </vehicle>

    <person id="ped_NS.21" depart="1260.00" arrival="1407.00">
        <walk edges="-E7 E8"/>
    </person>

    <vehicle id="WE_wakeup_car_right.5" type="car" depart="1356.00" arrival="1409.00">
        <route edges="-E6 E8"/>
    </vehicle>

    <vehicle id="WE_wakeup_truck.3" type="truck" depart="1392.00" arrival="1414.00">
        <route edges="-E6 E5"/>
    </vehicle>

    <vehicle id="EW_wakeup_car.7" type="car" depart="1402.00" arrival="1421.00">
        <route edges="-E5 E6"/>
    </vehicle>

    <person id="ped_EW.22" depart="1320.00" arrival="1441.00">
        <walk edges="-E5 E6"/>
    </person>

    <person id="ped_WE.22" depart="1320.00" arrival="1448.00">
        <walk edges="-E6 E5"/>
    </person>

    <vehicle id="NS_wakeup_car.17" type="car" depart="1422.00" arrival="1451.00">
        <route edges="-E7 E8"/>
    </vehicle>

    <vehicle id="NS_wakeup_car.16" type="car" depart="1385.00" arrival="1452.00">
        <route edges="-E7 E8"/>
    </vehicle>

    <person id="ped_WE.21" depart="1260.00" arrival="1453.00">
        <walk edges="-E6 E5"/>
    </person>

    <vehicle id="NS_wakeup_moto.8" type="motorcycle" depart="1425.00" arrival="1454.00">
        <route edges="-E7 E8"/>
    </vehicle>

    <vehicle id="SN_wakeup_moto_left.1" type="motorcycle" depart="1407.00" arrival="1456.00">
        <route edges="-E8 E6"/>
    </vehicle>

    <vehicle id="NS_wakeup_delivery.3" type="delivery" depart="1442.00" arrival="1466.00">
        <route edges="-E7 E8"/>
    </vehicle>

    <vehicle id="SN_wakeup_car_left.1" type="car" depart="1450.00" arrival="1473.00">
        <route edges="-E8 E6"/>
    </vehicle>

    <person id="ped_SN.22" depart="1320.00" arrival="1487.00">
        <walk edges="-E8 E7"/>
    </person>

    <person id="ped_NS.22" depart="1320.00" arrival="1490.00">
        <walk edges="-E7 E8"/>
    </person>

    <vehicle id="EW_wakeup_car.8" type="car" depart="1438.00" arrival="1497.00">
        <route edges="-E5 E6"/>
    </vehicle>

    <vehicle id="EW_wakeup_car.9" type="car" depart="1463.00" arrival="1497.00">
        <route edges="-E5 E6"/>
    </vehicle>

    <vehicle id="WE_wakeup_car.16" type="car" depart="1484.00" arrival="1502.00">
        <route edges="-E6 E5"/>
    </vehicle>

    <person id="ped_NS.23" depart="1380.00" arrival="1509.00">
        <walk edges="-E7 E8"/>
    </person>

    <person id="ped_SN.23" depart="1380.00" arrival="1513.00">
        <walk edges="-E8 E7"/>
    </person>

    <vehicle id="EW_wakeup_car.10" type="car" depart="1505.00" arrival="1525.00">
        <route edges="-E5 E6"/>
    </vehicle>

    <person id="ped_EW.23" depart="1380.00" arrival="1538.00">
        <walk edges="-E5 E6"/>
    </person>

    <person id="ped_WE.23" depart="1380.00" arrival="1541.00">
        <walk edges="-E6 E5"/>
    </person>

    <vehicle id="SN_wakeup_car.12" type="car" depart="1478.00" arrival="1541.00">
        <route edges="-E8 E7"/>
    </vehicle>

    <vehicle id="NS_wakeup_car.18" type="car" depart="1488.00" arrival="1541.00">
        <route edges="-E7 E8"/>
    </vehicle>

    <vehicle id="NS_wakeup_car.19" type="car" depart="1505.00" arrival="1541.00">
        <route edges="-E7 E8"/>
    </vehicle>

    <person id="ped_EW.24" depart="1440.00" arrival="1549.00">
        <walk edges="-E5 E6"/>
    </person>

    <vehicle id="SN_wakeup_moto.10" type="motorcycle" depart="1539.00" arrival="1558.00">
        <route edges="-E8 E7"/>
    </vehicle>

    <person id="ped_WE.24" depart="1440.00" arrival="1566.00">
        <walk edges="-E6 E5"/>
    </person>

    <vehicle id="NS_wakeup_car.20" type="car" depart="1554.00" arrival="1575.00">
        <route edges="-E7 E8"/>
    </vehicle>

    <person id="ped_NS.24" depart="1440.00" arrival="1579.00">
        <walk edges="-E7 E8"/>
    </person>
