<?xml version="1.0" encoding="UTF-8"?>

<!-- generated on 2025-03-31 16:29:48 by Eclipse SUMO GUI Version 1.22.0
<sumoConfiguration xmlns:xsi="http://www.w3.org/2001/XMLSchema-instance" xsi:noNamespaceSchemaLocation="http://sumo.dlr.de/xsd/sumoConfiguration.xsd">

    <input>
        <net-file value="app/cross.net.xml"/>
        <route-files value="app/vehicles.rou.xml"/>
    </input>

    <output>
        <queue-output value="app/statistiche/queue.xml"/>
        <summary-output value="app/statistiche/summary.xml"/>
        <tripinfo-output value="app/statistiche/tripinfo.xml"/>
        <vehroute-output value="app/statistiche/vehroute.xml"/>
    </output>

    <time>
        <begin value="0"/>
        <end value="86400"/>
    </time>

    <processing>
        <collision.action value="warn"/>
        <collision.stoptime value="1800"/>
        <collision.check-junctions value="true"/>
        <time-to-teleport value="-1"/>
    </processing>

    <report>
        <no-warnings value="true"/>
    </report>

    <traci_server>
        <remote-port value="57452"/>
    </traci_server>

    <random_number>
        <random value="true"/>
        <seed value="1742988170"/>
    </random_number>

    <gui_only>
        <gui-settings-file value="app/view.port.xml"/>
        <start value="true"/>
        <delay value="100"/>
    </gui_only>

</sumoConfiguration>
-->

<routes xmlns:xsi="http://www.w3.org/2001/XMLSchema-instance" xsi:noNamespaceSchemaLocation="http://sumo.dlr.de/xsd/routes_file.xsd">
    <vehicle id="SN_wakeup_car.0" type="car" depart="3.00" arrival="22.00">
        <route edges="-E8 E7"/>
    </vehicle>

    <vehicle id="NS_wakeup_car.0" type="car" depart="4.00" arrival="23.00">
        <route edges="-E7 E8"/>
    </vehicle>

    <vehicle id="SN_wakeup_car.1" type="car" depart="13.00" arrival="31.00">
        <route edges="-E8 E7"/>
    </vehicle>

    <vehicle id="EW_wakeup_car.0" type="car" depart="59.00" arrival="78.00">
        <route edges="-E5 E6"/>
    </vehicle>

    <vehicle id="SN_wakeup_car.2" type="car" depart="34.00" arrival="101.00">
        <route edges="-E8 E7"/>
    </vehicle>

    <vehicle id="SN_wakeup_car.3" type="car" depart="82.00" arrival="101.00">
        <route edges="-E8 E7"/>
    </vehicle>

</routes>
