<?xml version="1.0" encoding="UTF-8"?>

<!-- generated on 2025-03-26 12:40:27 by Eclipse SUMO sumo Version 1.22.0
<sumoConfiguration xmlns:xsi="http://www.w3.org/2001/XMLSchema-instance" xsi:noNamespaceSchemaLocation="http://sumo.dlr.de/xsd/sumoConfiguration.xsd">

    <input>
        <net-file value="app/cross.net.xml"/>
        <route-files value="app/vehicles.rou.xml"/>
    </input>

    <output>
        <queue-output value="app/statistiche/queue.xml"/>
        <summary-output value="app/statistiche/summary.xml"/>
        <tripinfo-output value="app/statistiche/tripinfo.xml"/>
        <vehroute-output value="app/statistiche/vehroute.xml"/>
    </output>

    <time>
        <begin value="0"/>
        <end value="86400"/>
    </time>

    <processing>
        <collision.action value="warn"/>
        <collision.stoptime value="1800"/>
        <collision.check-junctions value="true"/>
        <time-to-teleport value="-1"/>
    </processing>

    <report>
        <no-warnings value="true"/>
    </report>

    <traci_server>
        <remote-port value="52943"/>
    </traci_server>

    <random_number>
        <random value="true"/>
        <seed value="1742989247"/>
    </random_number>

    <gui_only>
        <gui-settings-file value="app/view.port.xml"/>
        <start value="true"/>
        <delay value="100"/>
    </gui_only>

</sumoConfiguration>
-->

<routes xmlns:xsi="http://www.w3.org/2001/XMLSchema-instance" xsi:noNamespaceSchemaLocation="http://sumo.dlr.de/xsd/routes_file.xsd">
    <vehicle id="SN_wakeup_car.0" type="car" depart="14.00" arrival="32.00">
        <route edges="-E8 E7"/>
    </vehicle>

    <vehicle id="NS_wakeup_truck.0" type="truck" depart="25.00" arrival="47.00">
        <route edges="-E7 E8"/>
    </vehicle>

    <vehicle id="SN_wakeup_car.1" type="car" depart="33.00" arrival="52.00">
        <route edges="-E8 E7"/>
    </vehicle>

    <vehicle id="EW_wakeup_moto.0" type="motorcycle" depart="26.00" arrival="78.00">
        <route edges="-E5 E6"/>
    </vehicle>

    <vehicle id="WE_wakeup_bus.0" type="bus" depart="33.00" arrival="84.00">
        <route edges="-E6 E5"/>
    </vehicle>

    <vehicle id="WE_wakeup_moto.0" type="motorcycle" depart="77.00" arrival="96.00">
        <route edges="-E6 E5"/>
    </vehicle>

    <vehicle id="SN_wakeup_car_right.0" type="car" depart="82.00" arrival="110.00">
        <route edges="-E8 E5"/>
    </vehicle>

    <vehicle id="WE_wakeup_car_left.0" type="car" depart="27.00" arrival="111.00">
        <route edges="-E6 E7"/>
    </vehicle>

    <vehicle id="WE_wakeup_car_left.1" type="car" depart="51.00" arrival="114.00">
        <route edges="-E6 E7"/>
    </vehicle>

    <vehicle id="NS_wakeup_car.0" type="car" depart="51.00" arrival="129.00">
        <route edges="-E7 E8"/>
    </vehicle>

    <vehicle id="NS_wakeup_car.1" type="car" depart="86.00" arrival="131.00">
        <route edges="-E7 E8"/>
    </vehicle>

    <vehicle id="NS_wakeup_moto_right.0" type="motorcycle" depart="128.00" arrival="148.00">
        <route edges="-E7 E6"/>
    </vehicle>

    <vehicle id="SN_wakeup_moto.0" type="motorcycle" depart="137.00" arrival="155.00">
        <route edges="-E8 E7"/>
    </vehicle>

    <vehicle id="NS_wakeup_car_right.0" type="car" depart="157.00" arrival="177.00">
        <route edges="-E7 E6"/>
    </vehicle>

    <vehicle id="WE_wakeup_moto.1" type="motorcycle" depart="152.00" arrival="196.00">
        <route edges="-E6 E5"/>
    </vehicle>

    <vehicle id="WE_wakeup_car.0" type="car" depart="184.00" arrival="204.00">
        <route edges="-E6 E5"/>
    </vehicle>

    <vehicle id="WE_wakeup_car.1" type="car" depart="187.00" arrival="206.00">
        <route edges="-E6 E5"/>
    </vehicle>

    <vehicle id="NS_wakeup_moto_right.1" type="motorcycle" depart="183.00" arrival="228.00">
        <route edges="-E7 E6"/>
    </vehicle>

    <vehicle id="EW_wakeup_car_left.0" type="car" depart="146.00" arrival="229.00">
        <route edges="-E5 E8"/>
    </vehicle>

    <vehicle id="SN_wakeup_car_right.1" type="car" depart="220.00" arrival="240.00">
        <route edges="-E8 E5"/>
    </vehicle>

    <vehicle id="WE_wakeup_moto_left.0" type="motorcycle" depart="221.00" arrival="241.00">
        <route edges="-E6 E7"/>
    </vehicle>

    <vehicle id="NS_wakeup_moto.0" type="motorcycle" depart="209.00" arrival="247.00">
        <route edges="-E7 E8"/>
    </vehicle>

    <vehicle id="EW_wakeup_truck.0" type="truck" depart="236.00" arrival="317.00">
        <route edges="-E5 E6"/>
    </vehicle>

    <vehicle id="EW_wakeup_moto_right.0" type="motorcycle" depart="261.00" arrival="317.00">
        <route edges="-E5 E7"/>
    </vehicle>

    <vehicle id="WE_wakeup_truck.0" type="truck" depart="261.00" arrival="317.00">
        <route edges="-E6 E5"/>
    </vehicle>

    <vehicle id="EW_wakeup_car_right.0" type="car" depart="278.00" arrival="319.00">
        <route edges="-E5 E7"/>
    </vehicle>

    <vehicle id="WE_wakeup_car_left.2" type="car" depart="244.00" arrival="346.00">
        <route edges="-E6 E7"/>
    </vehicle>

    <vehicle id="EW_wakeup_moto_left.0" type="motorcycle" depart="268.00" arrival="347.00">
        <route edges="-E5 E8"/>
    </vehicle>

    <vehicle id="NS_wakeup_moto.1" type="motorcycle" depart="309.00" arrival="364.00">
        <route edges="-E7 E8"/>
    </vehicle>

    <vehicle id="SN_wakeup_car.2" type="car" depart="277.00" arrival="366.00">
        <route edges="-E8 E7"/>
    </vehicle>

    <vehicle id="NS_wakeup_car.2" type="car" depart="328.00" arrival="367.00">
        <route edges="-E7 E8"/>
    </vehicle>

    <vehicle id="SN_wakeup_truck.0" type="truck" depart="321.00" arrival="369.00">
        <route edges="-E8 E7"/>
    </vehicle>

    <vehicle id="SN_wakeup_bus.0" type="bus" depart="268.00" arrival="371.00">
        <route edges="-E8 E7"/>
    </vehicle>

    <vehicle id="NS_wakeup_truck.1" type="truck" depart="366.00" arrival="388.00">
        <route edges="-E7 E8"/>
    </vehicle>

    <vehicle id="SN_wakeup_car.3" type="car" depart="385.00" arrival="404.00">
        <route edges="-E8 E7"/>
    </vehicle>

    <vehicle id="NS_wakeup_car.3" type="car" depart="388.00" arrival="407.00">
        <route edges="-E7 E8"/>
    </vehicle>

    <vehicle id="NS_wakeup_car_left.0" type="car" depart="307.00" arrival="414.00">
        <route edges="-E7 E5"/>
    </vehicle>

    <vehicle id="SN_wakeup_car_left.0" type="car" depart="344.00" arrival="414.00">
        <route edges="-E8 E6"/>
    </vehicle>

    <vehicle id="NS_wakeup_car_left.1" type="car" depart="398.00" arrival="419.00">
        <route edges="-E7 E5"/>
    </vehicle>

    <vehicle id="WE_wakeup_car.2" type="car" depart="415.00" arrival="434.00">
        <route edges="-E6 E5"/>
    </vehicle>

    <vehicle id="EW_wakeup_car.0" type="car" depart="421.00" arrival="441.00">
        <route edges="-E5 E6"/>
    </vehicle>

    <vehicle id="EW_wakeup_car.1" type="car" depart="426.00" arrival="445.00">
        <route edges="-E5 E6"/>
    </vehicle>

    <vehicle id="NS_wakeup_moto_right.2" type="motorcycle" depart="425.00" arrival="464.00">
        <route edges="-E7 E6"/>
    </vehicle>

    <vehicle id="SN_wakeup_car.4" type="car" depart="398.00" arrival="483.00">
        <route edges="-E8 E7"/>
    </vehicle>

    <vehicle id="NS_wakeup_truck.2" type="truck" depart="504.00" arrival="527.00">
        <route edges="-E7 E8"/>
    </vehicle>

    <vehicle id="NS_wakeup_moto_right.3" type="motorcycle" depart="520.00" arrival="540.00">
        <route edges="-E7 E6"/>
    </vehicle>

    <vehicle id="SN_wakeup_car_right.2" type="car" depart="524.00" arrival="543.00">
        <route edges="-E8 E5"/>
    </vehicle>

    <vehicle id="WE_wakeup_car.3" type="car" depart="457.00" arrival="550.00">
        <route edges="-E6 E5"/>
    </vehicle>

    <vehicle id="EW_wakeup_car.2" type="car" depart="487.00" arrival="550.00">
        <route edges="-E5 E6"/>
    </vehicle>

    <vehicle id="WE_wakeup_car.4" type="car" depart="543.00" arrival="562.00">
        <route edges="-E6 E5"/>
    </vehicle>

    <vehicle id="NS_wakeup_moto.2" type="motorcycle" depart="585.00" arrival="605.00">
        <route edges="-E7 E8"/>
    </vehicle>

    <vehicle id="SN_wakeup_car_right.3" type="car" depart="626.00" arrival="650.00">
        <route edges="-E8 E5"/>
    </vehicle>

    <vehicle id="WE_wakeup_car.6" type="car" depart="645.00" arrival="666.00">
        <route edges="-E6 E5"/>
    </vehicle>

    <vehicle id="WE_wakeup_car.5" type="car" depart="581.00" arrival="668.00">
        <route edges="-E6 E5"/>
    </vehicle>

    <vehicle id="EW_wakeup_car_right.1" type="car" depart="641.00" arrival="673.00">
        <route edges="-E5 E7"/>
    </vehicle>

    <vehicle id="EW_wakeup_bus.0" type="bus" depart="585.00" arrival="674.00">
        <route edges="-E5 E6"/>
    </vehicle>

    <vehicle id="WE_wakeup_moto_right.0" type="motorcycle" depart="683.00" arrival="704.00">
        <route edges="-E6 E8"/>
    </vehicle>

    <vehicle id="NS_wakeup_moto.3" type="motorcycle" depart="659.00" arrival="719.00">
        <route edges="-E7 E8"/>
    </vehicle>

    <vehicle id="NS_wakeup_truck.3" type="truck" depart="642.00" arrival="722.00">
        <route edges="-E7 E8"/>
    </vehicle>

    <vehicle id="NS_wakeup_moto_right.4" type="motorcycle" depart="703.00" arrival="723.00">
        <route edges="-E7 E6"/>
    </vehicle>

    <vehicle id="NS_wakeup_delivery.0" type="delivery" depart="720.00" arrival="744.00">
        <route edges="-E7 E8"/>
    </vehicle>

    <vehicle id="NS_wakeup_car_right.1" type="car" depart="736.00" arrival="758.00">
        <route edges="-E7 E6"/>
    </vehicle>

    <vehicle id="WE_wakeup_moto.2" type="motorcycle" depart="685.00" arrival="786.00">
        <route edges="-E6 E5"/>
    </vehicle>

    <vehicle id="WE_wakeup_moto.3" type="motorcycle" depart="711.00" arrival="786.00">
        <route edges="-E6 E5"/>
    </vehicle>

    <vehicle id="SN_wakeup_moto.1" type="motorcycle" depart="800.00" arrival="836.00">
        <route edges="-E8 E7"/>
    </vehicle>

    <vehicle id="SN_wakeup_car.5" type="car" depart="791.00" arrival="837.00">
        <route edges="-E8 E7"/>
    </vehicle>

    <vehicle id="NS_wakeup_car.4" type="car" depart="765.00" arrival="838.00">
        <route edges="-E7 E8"/>
    </vehicle>

    <vehicle id="NS_wakeup_car_right.2" type="car" depart="778.00" arrival="838.00">
        <route edges="-E7 E6"/>
    </vehicle>

    <vehicle id="NS_wakeup_car.5" type="car" depart="801.00" arrival="843.00">
        <route edges="-E7 E8"/>
    </vehicle>

    <vehicle id="SN_wakeup_bus.1" type="bus" depart="841.00" arrival="869.00">
        <route edges="-E8 E7"/>
    </vehicle>

    <vehicle id="NS_wakeup_car_left.2" type="car" depart="783.00" arrival="885.00">
        <route edges="-E7 E5"/>
    </vehicle>

    <vehicle id="EW_wakeup_moto.1" type="motorcycle" depart="809.00" arrival="889.00">
        <route edges="-E5 E6"/>
    </vehicle>

    <vehicle id="EW_wakeup_moto.2" type="motorcycle" depart="847.00" arrival="890.00">
        <route edges="-E5 E6"/>
    </vehicle>

    <vehicle id="EW_wakeup_delivery.1" type="delivery" depart="870.00" arrival="895.00">
        <route edges="-E5 E6"/>
    </vehicle>

    <vehicle id="WE_wakeup_car.7" type="car" depart="817.00" arrival="904.00">
        <route edges="-E6 E5"/>
    </vehicle>

    <vehicle id="EW_wakeup_delivery.0" type="delivery" depart="804.00" arrival="907.00">
        <route edges="-E5 E6"/>
    </vehicle>

    <vehicle id="WE_wakeup_car_right.0" type="car" depart="897.00" arrival="916.00">
        <route edges="-E6 E8"/>
    </vehicle>

    <vehicle id="WE_wakeup_car_left.3" type="car" depart="900.00" arrival="936.00">
        <route edges="-E6 E7"/>
    </vehicle>

    <vehicle id="EW_wakeup_car_right.2" type="car" depart="926.00" arrival="946.00">
        <route edges="-E5 E7"/>
    </vehicle>

    <vehicle id="EW_wakeup_car_right.3" type="car" depart="933.00" arrival="954.00">
        <route edges="-E5 E7"/>
    </vehicle>

    <vehicle id="NS_wakeup_moto.4" type="motorcycle" depart="869.00" arrival="955.00">
        <route edges="-E7 E8"/>
    </vehicle>

    <vehicle id="SN_wakeup_car.6" type="car" depart="878.00" arrival="956.00">
        <route edges="-E8 E7"/>
    </vehicle>

    <vehicle id="NS_wakeup_car_right.3" type="car" depart="948.00" arrival="968.00">
        <route edges="-E7 E6"/>
    </vehicle>

    <vehicle id="NS_wakeup_moto_right.5" type="motorcycle" depart="981.00" arrival="1003.00">
        <route edges="-E7 E6"/>
    </vehicle>

    <vehicle id="NS_wakeup_car_left.3" type="car" depart="984.00" arrival="1003.00">
        <route edges="-E7 E5"/>
    </vehicle>

    <vehicle id="SN_wakeup_car_left.1" type="car" depart="882.00" arrival="1005.00">
        <route edges="-E8 E6"/>
    </vehicle>

    <vehicle id="WE_wakeup_car.8" type="car" depart="956.00" arrival="1023.00">
        <route edges="-E6 E5"/>
    </vehicle>

    <vehicle id="SN_wakeup_car.7" type="car" depart="992.00" arrival="1073.00">
        <route edges="-E8 E7"/>
    </vehicle>

    <vehicle id="NS_wakeup_truck.4" type="truck" depart="1048.00" arrival="1073.00">
        <route edges="-E7 E8"/>
    </vehicle>

    <vehicle id="SN_wakeup_moto_right.0" type="motorcycle" depart="994.00" arrival="1075.00">
        <route edges="-E8 E5"/>
    </vehicle>

    <vehicle id="SN_wakeup_delivery.0" type="delivery" depart="987.00" arrival="1076.00">
        <route edges="-E8 E7"/>
    </vehicle>

    <vehicle id="SN_wakeup_car.8" type="car" depart="998.00" arrival="1076.00">
        <route edges="-E8 E7"/>
    </vehicle>

    <vehicle id="NS_wakeup_delivery.1" type="delivery" depart="1019.00" arrival="1076.00">
        <route edges="-E7 E8"/>
    </vehicle>

    <vehicle id="NS_wakeup_moto_right.6" type="motorcycle" depart="1056.00" arrival="1076.00">
        <route edges="-E7 E6"/>
    </vehicle>

    <vehicle id="SN_wakeup_moto.2" type="motorcycle" depart="1032.00" arrival="1078.00">
        <route edges="-E8 E7"/>
    </vehicle>

    <vehicle id="SN_wakeup_moto_right.1" type="motorcycle" depart="1039.00" arrival="1079.00">
        <route edges="-E8 E5"/>
    </vehicle>

    <vehicle id="NS_wakeup_car.6" type="car" depart="1082.00" arrival="1100.00">
        <route edges="-E7 E8"/>
    </vehicle>

    <vehicle id="SN_wakeup_car.9" type="car" depart="1092.00" arrival="1111.00">
        <route edges="-E8 E7"/>
    </vehicle>

    <vehicle id="SN_wakeup_moto.3" type="motorcycle" depart="1094.00" arrival="1114.00">
        <route edges="-E8 E7"/>
    </vehicle>

    <vehicle id="SN_wakeup_moto_left.0" type="motorcycle" depart="1034.00" arrival="1123.00">
        <route edges="-E8 E6"/>
    </vehicle>

    <vehicle id="SN_wakeup_car_left.2" type="car" depart="1070.00" arrival="1124.00">
        <route edges="-E8 E6"/>
    </vehicle>

    <vehicle id="EW_wakeup_moto.3" type="motorcycle" depart="1077.00" arrival="1139.00">
        <route edges="-E5 E6"/>
    </vehicle>

    <vehicle id="WE_wakeup_moto.4" type="motorcycle" depart="1080.00" arrival="1140.00">
        <route edges="-E6 E5"/>
    </vehicle>

    <vehicle id="WE_wakeup_delivery.0" type="delivery" depart="1030.00" arrival="1143.00">
        <route edges="-E6 E5"/>
    </vehicle>

    <vehicle id="NS_wakeup_car.7" type="car" depart="1107.00" arrival="1191.00">
        <route edges="-E7 E8"/>
    </vehicle>

    <vehicle id="SN_wakeup_delivery.1" type="delivery" depart="1098.00" arrival="1194.00">
        <route edges="-E8 E7"/>
    </vehicle>

    <vehicle id="SN_wakeup_delivery.2" type="delivery" depart="1154.00" arrival="1194.00">
        <route edges="-E8 E7"/>
    </vehicle>

    <vehicle id="SN_wakeup_car_right.4" type="car" depart="1138.00" arrival="1195.00">
        <route edges="-E8 E5"/>
    </vehicle>

    <vehicle id="SN_wakeup_car.10" type="car" depart="1164.00" arrival="1196.00">
        <route edges="-E8 E7"/>
    </vehicle>

    <vehicle id="NS_wakeup_truck.5" type="truck" depart="1212.00" arrival="1234.00">
        <route edges="-E7 E8"/>
    </vehicle>

    <vehicle id="EW_wakeup_car_right.4" type="car" depart="1236.00" arrival="1257.00">
        <route edges="-E5 E7"/>
    </vehicle>

    <vehicle id="WE_wakeup_moto.5" type="motorcycle" depart="1216.00" arrival="1258.00">
        <route edges="-E6 E5"/>
    </vehicle>

    <vehicle id="EW_wakeup_moto.4" type="motorcycle" depart="1254.00" arrival="1277.00">
        <route edges="-E5 E6"/>
    </vehicle>

    <vehicle id="EW_wakeup_car.3" type="car" depart="1263.00" arrival="1282.00">
        <route edges="-E5 E6"/>
    </vehicle>

    <vehicle id="NS_wakeup_moto.5" type="motorcycle" depart="1284.00" arrival="1308.00">
        <route edges="-E7 E8"/>
    </vehicle>

    <vehicle id="NS_wakeup_moto.6" type="motorcycle" depart="1293.00" arrival="1312.00">
        <route edges="-E7 E8"/>
    </vehicle>

    <vehicle id="SN_wakeup_bus.2" type="bus" depart="1289.00" arrival="1317.00">
        <route edges="-E8 E7"/>
    </vehicle>

    <vehicle id="NS_wakeup_moto.7" type="motorcycle" depart="1315.00" arrival="1333.00">
        <route edges="-E7 E8"/>
    </vehicle>

    <vehicle id="SN_wakeup_car.11" type="car" depart="1330.00" arrival="1351.00">
        <route edges="-E8 E7"/>
    </vehicle>

    <vehicle id="EW_wakeup_car.5" type="car" depart="1342.00" arrival="1362.00">
        <route edges="-E5 E6"/>
    </vehicle>

    <vehicle id="EW_wakeup_car.4" type="car" depart="1317.00" arrival="1376.00">
        <route edges="-E5 E6"/>
    </vehicle>

    <vehicle id="WE_wakeup_car.9" type="car" depart="1358.00" arrival="1378.00">
        <route edges="-E6 E5"/>
    </vehicle>

    <vehicle id="SN_wakeup_car.12" type="car" depart="1368.00" arrival="1427.00">
        <route edges="-E8 E7"/>
    </vehicle>

    <vehicle id="NS_wakeup_car.8" type="car" depart="1376.00" arrival="1427.00">
        <route edges="-E7 E8"/>
    </vehicle>

    <vehicle id="NS_wakeup_car.9" type="car" depart="1412.00" arrival="1430.00">
        <route edges="-E7 E8"/>
    </vehicle>

    <vehicle id="NS_wakeup_bus.0" type="bus" depart="1423.00" arrival="1451.00">
        <route edges="-E7 E8"/>
    </vehicle>

    <vehicle id="EW_wakeup_moto.6" type="motorcycle" depart="1445.00" arrival="1480.00">
        <route edges="-E5 E6"/>
    </vehicle>

    <vehicle id="EW_wakeup_bus.1" type="bus" depart="1397.00" arrival="1482.00">
        <route edges="-E5 E6"/>
    </vehicle>

    <vehicle id="EW_wakeup_moto.5" type="motorcycle" depart="1437.00" arrival="1483.00">
        <route edges="-E5 E6"/>
    </vehicle>

    <vehicle id="EW_wakeup_delivery.2" type="delivery" depart="1390.00" arrival="1497.00">
        <route edges="-E5 E6"/>
    </vehicle>

    <vehicle id="WE_wakeup_car.10" type="car" depart="1487.00" arrival="1505.00">
        <route edges="-E6 E5"/>
    </vehicle>

    <vehicle id="WE_wakeup_car_left.4" type="car" depart="1517.00" arrival="1537.00">
        <route edges="-E6 E7"/>
    </vehicle>

    <vehicle id="EW_wakeup_car_right.5" type="car" depart="1538.00" arrival="1560.00">
        <route edges="-E5 E7"/>
    </vehicle>

    <vehicle id="NS_wakeup_delivery.2" type="delivery" depart="1542.00" arrival="1566.00">
        <route edges="-E7 E8"/>
    </vehicle>

    <vehicle id="NS_wakeup_car_right.4" type="car" depart="1546.00" arrival="1569.00">
        <route edges="-E7 E6"/>
    </vehicle>

    <vehicle id="SN_wakeup_car.13" type="car" depart="1555.00" arrival="1573.00">
        <route edges="-E8 E7"/>
    </vehicle>

    <vehicle id="NS_wakeup_moto.8" type="motorcycle" depart="1566.00" arrival="1585.00">
        <route edges="-E7 E8"/>
    </vehicle>

    <vehicle id="NS_wakeup_moto_right.7" type="motorcycle" depart="1570.00" arrival="1588.00">
        <route edges="-E7 E6"/>
    </vehicle>

    <vehicle id="SN_wakeup_bus.3" type="bus" depart="1563.00" arrival="1591.00">
        <route edges="-E8 E7"/>
    </vehicle>

    <vehicle id="EW_wakeup_moto.7" type="motorcycle" depart="1598.00" arrival="1618.00">
        <route edges="-E5 E6"/>
    </vehicle>

    <vehicle id="EW_wakeup_car_right.6" type="car" depart="1619.00" arrival="1639.00">
        <route edges="-E5 E7"/>
    </vehicle>

    <vehicle id="EW_wakeup_car_left.1" type="car" depart="1616.00" arrival="1645.00">
        <route edges="-E5 E8"/>
    </vehicle>

    <vehicle id="NS_wakeup_car.10" type="car" depart="1642.00" arrival="1662.00">
        <route edges="-E7 E8"/>
    </vehicle>

    <vehicle id="SN_wakeup_moto.4" type="motorcycle" depart="1578.00" arrival="1663.00">
        <route edges="-E8 E7"/>
    </vehicle>

    <vehicle id="SN_wakeup_car.14" type="car" depart="1605.00" arrival="1663.00">
        <route edges="-E8 E7"/>
    </vehicle>

    <vehicle id="NS_wakeup_truck.6" type="truck" depart="1595.00" arrival="1665.00">
        <route edges="-E7 E8"/>
    </vehicle>

    <vehicle id="SN_wakeup_moto.5" type="motorcycle" depart="1629.00" arrival="1666.00">
        <route edges="-E8 E7"/>
    </vehicle>

    <vehicle id="SN_wakeup_truck.1" type="truck" depart="1619.00" arrival="1667.00">
        <route edges="-E8 E7"/>
    </vehicle>

    <vehicle id="SN_wakeup_car_right.5" type="car" depart="1639.00" arrival="1668.00">
        <route edges="-E8 E5"/>
    </vehicle>

    <vehicle id="EW_wakeup_moto.8" type="motorcycle" depart="1680.00" arrival="1712.00">
        <route edges="-E5 E6"/>
    </vehicle>

    <vehicle id="WE_wakeup_moto.6" type="motorcycle" depart="1705.00" arrival="1730.00">
        <route edges="-E6 E5"/>
    </vehicle>

    <vehicle id="EW_wakeup_truck.1" type="truck" depart="1649.00" arrival="1732.00">
        <route edges="-E5 E6"/>
    </vehicle>

    <vehicle id="EW_wakeup_car_right.7" type="car" depart="1683.00" arrival="1733.00">
        <route edges="-E5 E7"/>
    </vehicle>

    <vehicle id="EW_wakeup_car_right.8" type="car" depart="1717.00" arrival="1735.00">
        <route edges="-E5 E7"/>
    </vehicle>

    <vehicle id="WE_wakeup_car.11" type="car" depart="1728.00" arrival="1746.00">
        <route edges="-E6 E5"/>
    </vehicle>

    <vehicle id="WE_wakeup_car_right.1" type="car" depart="1731.00" arrival="1751.00">
        <route edges="-E6 E8"/>
    </vehicle>

    <vehicle id="NS_wakeup_car.11" type="car" depart="1726.00" arrival="1781.00">
        <route edges="-E7 E8"/>
    </vehicle>

    <vehicle id="SN_wakeup_car.15" type="car" depart="1734.00" arrival="1782.00">
        <route edges="-E8 E7"/>
    </vehicle>

    <vehicle id="SN_wakeup_car.16" type="car" depart="1750.00" arrival="1782.00">
        <route edges="-E8 E7"/>
    </vehicle>

    <vehicle id="NS_wakeup_car.12" type="car" depart="1790.00" arrival="1811.00">
        <route edges="-E7 E8"/>
    </vehicle>

    <vehicle id="EW_wakeup_car.7" type="car" depart="1775.00" arrival="1830.00">
        <route edges="-E5 E6"/>
    </vehicle>

    <vehicle id="EW_wakeup_car.8" type="car" depart="1788.00" arrival="1832.00">
        <route edges="-E5 E6"/>
    </vehicle>

    <vehicle id="WE_wakeup_moto.7" type="motorcycle" depart="1759.00" arrival="1847.00">
        <route edges="-E6 E5"/>
    </vehicle>

    <vehicle id="EW_wakeup_car.6" type="car" depart="1765.00" arrival="1848.00">
        <route edges="-E5 E6"/>
    </vehicle>

    <vehicle id="WE_wakeup_car.12" type="car" depart="1808.00" arrival="1848.00">
        <route edges="-E6 E5"/>
    </vehicle>

    <vehicle id="EW_wakeup_car_right.9" type="car" depart="1779.00" arrival="1851.00">
        <route edges="-E5 E7"/>
    </vehicle>

    <vehicle id="EW_wakeup_moto.9" type="motorcycle" depart="1820.00" arrival="1854.00">
        <route edges="-E5 E6"/>
    </vehicle>

    <vehicle id="WE_wakeup_moto_right.1" type="motorcycle" depart="1834.00" arrival="1854.00">
        <route edges="-E6 E8"/>
    </vehicle>

    <vehicle id="EW_wakeup_car_left.2" type="car" depart="1804.00" arrival="1881.00">
        <route edges="-E5 E8"/>
    </vehicle>

    <vehicle id="NS_wakeup_moto.9" type="motorcycle" depart="1821.00" arrival="1899.00">
        <route edges="-E7 E8"/>
    </vehicle>

    <vehicle id="SN_wakeup_car.18" type="car" depart="1849.00" arrival="1899.00">
        <route edges="-E8 E7"/>
    </vehicle>

    <vehicle id="SN_wakeup_car.17" type="car" depart="1846.00" arrival="1900.00">
        <route edges="-E8 E7"/>
    </vehicle>

    <vehicle id="SN_wakeup_moto.6" type="motorcycle" depart="1869.00" arrival="1902.00">
        <route edges="-E8 E7"/>
    </vehicle>

    <vehicle id="SN_wakeup_car_right.6" type="car" depart="1911.00" arrival="1931.00">
        <route edges="-E8 E5"/>
    </vehicle>

    <vehicle id="NS_wakeup_moto.10" type="motorcycle" depart="1916.00" arrival="1935.00">
        <route edges="-E7 E8"/>
    </vehicle>

    <vehicle id="EW_wakeup_car.9" type="car" depart="1915.00" arrival="1967.00">
        <route edges="-E5 E6"/>
    </vehicle>

    <vehicle id="EW_wakeup_car.10" type="car" depart="1933.00" arrival="1968.00">
        <route edges="-E5 E6"/>
    </vehicle>

    <vehicle id="EW_wakeup_moto.10" type="motorcycle" depart="1944.00" arrival="1974.00">
        <route edges="-E5 E6"/>
    </vehicle>

    <vehicle id="SN_wakeup_car_right.7" type="car" depart="1957.00" arrival="1998.00">
        <route edges="-E8 E5"/>
    </vehicle>

    <vehicle id="EW_wakeup_car_left.3" type="car" depart="1903.00" arrival="1999.00">
        <route edges="-E5 E8"/>
    </vehicle>

    <vehicle id="NS_wakeup_moto.11" type="motorcycle" depart="2021.00" arrival="2041.00">
        <route edges="-E7 E8"/>
    </vehicle>

    <vehicle id="NS_wakeup_car_left.4" type="car" depart="2030.00" arrival="2066.00">
        <route edges="-E7 E5"/>
    </vehicle>

    <vehicle id="WE_wakeup_car.13" type="car" depart="2024.00" arrival="2084.00">
        <route edges="-E6 E5"/>
    </vehicle>

    <vehicle id="EW_wakeup_car.11" type="car" depart="2075.00" arrival="2094.00">
        <route edges="-E5 E6"/>
    </vehicle>

    <vehicle id="NS_wakeup_car.13" type="car" depart="2044.00" arrival="2135.00">
        <route edges="-E7 E8"/>
    </vehicle>

    <vehicle id="NS_wakeup_car.14" type="car" depart="2135.00" arrival="2153.00">
        <route edges="-E7 E8"/>
    </vehicle>

    <vehicle id="SN_wakeup_car.19" type="car" depart="2159.00" arrival="2177.00">
        <route edges="-E8 E7"/>
    </vehicle>

    <vehicle id="NS_wakeup_delivery.3" type="delivery" depart="2154.00" arrival="2178.00">
        <route edges="-E7 E8"/>
    </vehicle>

    <vehicle id="EW_wakeup_car.12" type="car" depart="2106.00" arrival="2184.00">
        <route edges="-E5 E6"/>
    </vehicle>

    <vehicle id="SN_wakeup_car_right.8" type="car" depart="2165.00" arrival="2184.00">
        <route edges="-E8 E5"/>
    </vehicle>

    <vehicle id="EW_wakeup_car.13" type="car" depart="2124.00" arrival="2186.00">
        <route edges="-E5 E6"/>
    </vehicle>

    <vehicle id="EW_wakeup_car.14" type="car" depart="2146.00" arrival="2188.00">
        <route edges="-E5 E6"/>
    </vehicle>

    <vehicle id="EW_wakeup_car.15" type="car" depart="2164.00" arrival="2190.00">
        <route edges="-E5 E6"/>
    </vehicle>

    <vehicle id="EW_wakeup_car.16" type="car" depart="2174.00" arrival="2195.00">
        <route edges="-E5 E6"/>
    </vehicle>

    <vehicle id="WE_wakeup_car.15" type="car" depart="2181.00" arrival="2200.00">
        <route edges="-E6 E5"/>
    </vehicle>

    <vehicle id="WE_wakeup_car.14" type="car" depart="2134.00" arrival="2202.00">
        <route edges="-E6 E5"/>
    </vehicle>

    <vehicle id="EW_wakeup_car_right.10" type="car" depart="2133.00" arrival="2207.00">
        <route edges="-E5 E7"/>
    </vehicle>

    <vehicle id="EW_wakeup_bus.2" type="bus" depart="2095.00" arrival="2208.00">
        <route edges="-E5 E6"/>
    </vehicle>

    <vehicle id="EW_wakeup_car_right.11" type="car" depart="2161.00" arrival="2209.00">
        <route edges="-E5 E7"/>
    </vehicle>

    <vehicle id="WE_wakeup_car_right.2" type="car" depart="2200.00" arrival="2220.00">
        <route edges="-E6 E8"/>
    </vehicle>

    <vehicle id="WE_wakeup_moto_right.2" type="motorcycle" depart="2209.00" arrival="2229.00">
        <route edges="-E6 E8"/>
    </vehicle>

    <vehicle id="NS_wakeup_car_right.5" type="car" depart="2181.00" arrival="2234.00">
        <route edges="-E7 E6"/>
    </vehicle>

    <vehicle id="NS_wakeup_moto.12" type="motorcycle" depart="2223.00" arrival="2253.00">
        <route edges="-E7 E8"/>
    </vehicle>

    <vehicle id="SN_wakeup_moto.7" type="motorcycle" depart="2187.00" arrival="2254.00">
        <route edges="-E8 E7"/>
    </vehicle>

    <vehicle id="NS_wakeup_bus.1" type="bus" depart="2202.00" arrival="2259.00">
        <route edges="-E7 E8"/>
    </vehicle>

    <vehicle id="NS_wakeup_moto.13" type="motorcycle" depart="2253.00" arrival="2272.00">
        <route edges="-E7 E8"/>
    </vehicle>

    <vehicle id="SN_wakeup_moto.8" type="motorcycle" depart="2314.00" arrival="2371.00">
        <route edges="-E8 E7"/>
    </vehicle>

    <vehicle id="SN_wakeup_truck.2" type="truck" depart="2303.00" arrival="2374.00">
        <route edges="-E8 E7"/>
    </vehicle>

    <vehicle id="NS_wakeup_truck.7" type="truck" depart="2318.00" arrival="2374.00">
        <route edges="-E7 E8"/>
    </vehicle>

    <vehicle id="NS_wakeup_car.15" type="car" depart="2332.00" arrival="2376.00">
        <route edges="-E7 E8"/>
    </vehicle>

    <vehicle id="NS_wakeup_car_right.6" type="car" depart="2347.00" arrival="2376.00">
        <route edges="-E7 E6"/>
    </vehicle>

    <vehicle id="SN_wakeup_car.20" type="car" depart="2363.00" arrival="2383.00">
        <route edges="-E8 E7"/>
    </vehicle>

    <vehicle id="NS_wakeup_truck.8" type="truck" depart="2328.00" arrival="2384.00">
        <route edges="-E7 E8"/>
    </vehicle>

    <vehicle id="NS_wakeup_bus.2" type="bus" depart="2377.00" arrival="2405.00">
        <route edges="-E7 E8"/>
    </vehicle>
