<?xml version="1.0" encoding="UTF-8"?>

<!-- generated on 2025-03-26 09:26:13 by Eclipse SUMO GUI Version 1.22.0
<sumoConfiguration xmlns:xsi="http://www.w3.org/2001/XMLSchema-instance" xsi:noNamespaceSchemaLocation="http://sumo.dlr.de/xsd/sumoConfiguration.xsd">

    <input>
        <net-file value="app/cross.net.xml"/>
        <route-files value="app/vehicles.rou.xml"/>
    </input>

    <output>
        <queue-output value="app/statistiche/queue.xml"/>
        <summary-output value="app/statistiche/summary.xml"/>
        <tripinfo-output value="app/statistiche/tripinfo.xml"/>
        <vehroute-output value="app/statistiche/vehroute.xml"/>
    </output>

    <time>
        <begin value="0"/>
        <end value="86400"/>
    </time>

    <processing>
        <collision.action value="warn"/>
        <collision.stoptime value="1800"/>
        <collision.check-junctions value="true"/>
        <time-to-teleport value="-1"/>
    </processing>

    <report>
        <no-warnings value="true"/>
    </report>

    <traci_server>
        <remote-port value="57230"/>
    </traci_server>

    <random_number>
        <random value="true"/>
        <seed value="1742977572"/>
    </random_number>

    <gui_only>
        <gui-settings-file value="app/view.port.xml"/>
        <start value="true"/>
        <delay value="100"/>
    </gui_only>

</sumoConfiguration>
-->

<routes xmlns:xsi="http://www.w3.org/2001/XMLSchema-instance" xsi:noNamespaceSchemaLocation="http://sumo.dlr.de/xsd/routes_file.xsd">
    <vehicle id="SN_wakeup_moto.0" type="motorcycle" depart="8.00" arrival="27.00">
        <route edges="-E8 E7"/>
    </vehicle>

    <vehicle id="EW_wakeup_car_right.0" type="car" depart="28.00" arrival="49.00">
        <route edges="-E5 E7"/>
    </vehicle>

    <vehicle id="WE_wakeup_car.0" type="car" depart="22.00" arrival="78.00">
        <route edges="-E6 E5"/>
    </vehicle>

    <vehicle id="SN_wakeup_car.0" type="car" depart="40.00" arrival="130.00">
        <route edges="-E8 E7"/>
    </vehicle>

    <vehicle id="NS_wakeup_truck.0" type="truck" depart="69.00" arrival="132.00">
        <route edges="-E7 E8"/>
    </vehicle>

    <vehicle id="SN_wakeup_car.1" type="car" depart="84.00" arrival="133.00">
        <route edges="-E8 E7"/>
    </vehicle>

    <vehicle id="NS_wakeup_delivery.0" type="delivery" depart="136.00" arrival="160.00">
        <route edges="-E7 E8"/>
    </vehicle>

    <vehicle id="NS_wakeup_delivery.1" type="delivery" depart="139.00" arrival="163.00">
        <route edges="-E7 E8"/>
    </vehicle>

    <vehicle id="SN_wakeup_moto_left.0" type="motorcycle" depart="80.00" arrival="178.00">
        <route edges="-E8 E6"/>
    </vehicle>

    <vehicle id="NS_wakeup_car_left.0" type="car" depart="172.00" arrival="191.00">
        <route edges="-E7 E5"/>
    </vehicle>

    <vehicle id="WE_wakeup_moto.0" type="motorcycle" depart="146.00" arrival="196.00">
        <route edges="-E6 E5"/>
    </vehicle>

    <vehicle id="EW_wakeup_car.0" type="car" depart="130.00" arrival="197.00">
        <route edges="-E5 E6"/>
    </vehicle>

    <vehicle id="WE_wakeup_car.1" type="car" depart="180.00" arrival="199.00">
        <route edges="-E6 E5"/>
    </vehicle>

    <vehicle id="EW_wakeup_car_left.0" type="car" depart="200.00" arrival="229.00">
        <route edges="-E5 E8"/>
    </vehicle>

    <vehicle id="SN_wakeup_moto.1" type="motorcycle" depart="184.00" arrival="247.00">
        <route edges="-E8 E7"/>
    </vehicle>

    <vehicle id="SN_wakeup_moto.2" type="motorcycle" depart="188.00" arrival="248.00">
        <route edges="-E8 E7"/>
    </vehicle>

    <vehicle id="SN_wakeup_car.2" type="car" depart="224.00" arrival="248.00">
        <route edges="-E8 E7"/>
    </vehicle>

    <vehicle id="NS_wakeup_truck.1" type="truck" depart="191.00" arrival="250.00">
        <route edges="-E7 E8"/>
    </vehicle>

    <vehicle id="NS_wakeup_moto_left.0" type="motorcycle" depart="263.00" arrival="296.00">
        <route edges="-E7 E5"/>
    </vehicle>

    <vehicle id="SN_wakeup_car_left.0" type="car" depart="210.00" arrival="299.00">
        <route edges="-E8 E6"/>
    </vehicle>

    <vehicle id="EW_wakeup_car.1" type="car" depart="218.00" arrival="315.00">
        <route edges="-E5 E6"/>
    </vehicle>

    <vehicle id="WE_wakeup_delivery.0" type="delivery" depart="288.00" arrival="317.00">
        <route edges="-E6 E5"/>
    </vehicle>

    <vehicle id="WE_wakeup_car_right.0" type="car" depart="327.00" arrival="347.00">
        <route edges="-E6 E8"/>
    </vehicle>

    <vehicle id="WE_wakeup_car_right.1" type="car" depart="339.00" arrival="361.00">
        <route edges="-E6 E8"/>
    </vehicle>

    <vehicle id="SN_wakeup_car.3" type="car" depart="296.00" arrival="365.00">
        <route edges="-E8 E7"/>
    </vehicle>

    <vehicle id="NS_wakeup_car.0" type="car" depart="281.00" arrival="366.00">
        <route edges="-E7 E8"/>
    </vehicle>

    <vehicle id="SN_wakeup_moto.3" type="motorcycle" depart="304.00" arrival="367.00">
        <route edges="-E8 E7"/>
    </vehicle>

    <vehicle id="SN_wakeup_truck.0" type="truck" depart="288.00" arrival="368.00">
        <route edges="-E8 E7"/>
    </vehicle>

    <vehicle id="SN_wakeup_moto.4" type="motorcycle" depart="314.00" arrival="371.00">
        <route edges="-E8 E7"/>
    </vehicle>

    <vehicle id="NS_wakeup_bus.0" type="bus" depart="290.00" arrival="372.00">
        <route edges="-E7 E8"/>
    </vehicle>

    <vehicle id="SN_wakeup_moto.5" type="motorcycle" depart="350.00" arrival="372.00">
        <route edges="-E8 E7"/>
    </vehicle>

    <vehicle id="WE_wakeup_moto_right.0" type="motorcycle" depart="359.00" arrival="380.00">
        <route edges="-E6 E8"/>
    </vehicle>

    <vehicle id="SN_wakeup_car_left.1" type="car" depart="335.00" arrival="414.00">
        <route edges="-E8 E6"/>
    </vehicle>

    <vehicle id="NS_wakeup_moto_left.1" type="motorcycle" depart="396.00" arrival="416.00">
        <route edges="-E7 E5"/>
    </vehicle>

    <vehicle id="EW_wakeup_car.3" type="car" depart="345.00" arrival="419.00">
        <route edges="-E5 E6"/>
    </vehicle>

    <vehicle id="EW_wakeup_car.2" type="car" depart="326.00" arrival="432.00">
        <route edges="-E5 E6"/>
    </vehicle>

    <vehicle id="EW_wakeup_car_right.1" type="car" depart="348.00" arrival="434.00">
        <route edges="-E5 E7"/>
    </vehicle>

    <vehicle id="EW_wakeup_car_right.2" type="car" depart="351.00" arrival="438.00">
        <route edges="-E5 E7"/>
    </vehicle>

    <vehicle id="SN_wakeup_moto_right.0" type="motorcycle" depart="427.00" arrival="464.00">
        <route edges="-E8 E5"/>
    </vehicle>

    <vehicle id="SN_wakeup_car.4" type="car" depart="406.00" arrival="483.00">
        <route edges="-E8 E7"/>
    </vehicle>

    <vehicle id="NS_wakeup_car.1" type="car" depart="393.00" arrival="484.00">
        <route edges="-E7 E8"/>
    </vehicle>

    <vehicle id="NS_wakeup_car.2" type="car" depart="466.00" arrival="487.00">
        <route edges="-E7 E8"/>
    </vehicle>

    <vehicle id="SN_wakeup_car.5" type="car" depart="489.00" arrival="507.00">
        <route edges="-E8 E7"/>
    </vehicle>

    <vehicle id="WE_wakeup_car_left.0" type="car" depart="468.00" arrival="583.00">
        <route edges="-E6 E7"/>
    </vehicle>

    <vehicle id="WE_wakeup_car_left.1" type="car" depart="535.00" arrival="585.00">
        <route edges="-E6 E7"/>
    </vehicle>

    <vehicle id="WE_wakeup_car_right.2" type="car" depart="577.00" arrival="597.00">
        <route edges="-E6 E8"/>
    </vehicle>

    <vehicle id="NS_wakeup_moto.0" type="motorcycle" depart="513.00" arrival="602.00">
        <route edges="-E7 E8"/>
    </vehicle>

    <vehicle id="SN_wakeup_delivery.0" type="delivery" depart="526.00" arrival="604.00">
        <route edges="-E8 E7"/>
    </vehicle>

    <vehicle id="SN_wakeup_car.6" type="car" depart="538.00" arrival="606.00">
        <route edges="-E8 E7"/>
    </vehicle>

    <vehicle id="SN_wakeup_moto.6" type="motorcycle" depart="595.00" arrival="613.00">
        <route edges="-E8 E7"/>
    </vehicle>

    <vehicle id="SN_wakeup_car.7" type="car" depart="609.00" arrival="628.00">
        <route edges="-E8 E7"/>
    </vehicle>

    <vehicle id="SN_wakeup_car_left.2" type="car" depart="529.00" arrival="650.00">
        <route edges="-E8 E6"/>
    </vehicle>

    <vehicle id="SN_wakeup_moto_left.1" type="motorcycle" depart="532.00" arrival="652.00">
        <route edges="-E8 E6"/>
    </vehicle>

    <vehicle id="EW_wakeup_car_right.3" type="car" depart="643.00" arrival="662.00">
        <route edges="-E5 E7"/>
    </vehicle>

    <vehicle id="EW_wakeup_truck.0" type="truck" depart="649.00" arrival="671.00">
        <route edges="-E5 E6"/>
    </vehicle>

    <vehicle id="EW_wakeup_car_left.1" type="car" depart="587.00" arrival="701.00">
        <route edges="-E5 E8"/>
    </vehicle>

    <vehicle id="SN_wakeup_moto.7" type="motorcycle" depart="644.00" arrival="719.00">
        <route edges="-E8 E7"/>
    </vehicle>

    <vehicle id="NS_wakeup_car.3" type="car" depart="674.00" arrival="719.00">
        <route edges="-E7 E8"/>
    </vehicle>

    <vehicle id="NS_wakeup_car.4" type="car" depart="695.00" arrival="720.00">
        <route edges="-E7 E8"/>
    </vehicle>

    <vehicle id="NS_wakeup_car_right.0" type="car" depart="698.00" arrival="720.00">
        <route edges="-E7 E6"/>
    </vehicle>

    <vehicle id="SN_wakeup_truck.1" type="truck" depart="629.00" arrival="722.00">
        <route edges="-E8 E7"/>
    </vehicle>

    <vehicle id="SN_wakeup_car.8" type="car" depart="696.00" arrival="722.00">
        <route edges="-E8 E7"/>
    </vehicle>

    <vehicle id="SN_wakeup_moto.8" type="motorcycle" depart="711.00" arrival="729.00">
        <route edges="-E8 E7"/>
    </vehicle>

    <vehicle id="NS_wakeup_car_left.1" type="car" depart="740.00" arrival="769.00">
        <route edges="-E7 E5"/>
    </vehicle>

    <vehicle id="WE_wakeup_car.2" type="car" depart="750.00" arrival="786.00">
        <route edges="-E6 E5"/>
    </vehicle>

    <vehicle id="EW_wakeup_delivery.0" type="delivery" depart="696.00" arrival="789.00">
        <route edges="-E5 E6"/>
    </vehicle>

    <vehicle id="EW_wakeup_car_right.4" type="car" depart="777.00" arrival="797.00">
        <route edges="-E5 E7"/>
    </vehicle>

    <vehicle id="EW_wakeup_car.4" type="car" depart="784.00" arrival="802.00">
        <route edges="-E5 E6"/>
    </vehicle>

    <vehicle id="WE_wakeup_moto.1" type="motorcycle" depart="792.00" arrival="810.00">
        <route edges="-E6 E5"/>
    </vehicle>

    <vehicle id="WE_wakeup_car_left.2" type="car" depart="739.00" arrival="819.00">
        <route edges="-E6 E7"/>
    </vehicle>

    <vehicle id="WE_wakeup_moto_left.0" type="motorcycle" depart="782.00" arrival="821.00">
        <route edges="-E6 E7"/>
    </vehicle>

    <vehicle id="SN_wakeup_moto.9" type="motorcycle" depart="816.00" arrival="835.00">
        <route edges="-E8 E7"/>
    </vehicle>

    <vehicle id="NS_wakeup_moto.1" type="motorcycle" depart="765.00" arrival="837.00">
        <route edges="-E7 E8"/>
    </vehicle>

    <vehicle id="SN_wakeup_car.9" type="car" depart="814.00" arrival="837.00">
        <route edges="-E8 E7"/>
    </vehicle>

    <vehicle id="NS_wakeup_truck.2" type="truck" depart="803.00" arrival="841.00">
        <route edges="-E7 E8"/>
    </vehicle>

    <vehicle id="SN_wakeup_car.10" type="car" depart="837.00" arrival="856.00">
        <route edges="-E8 E7"/>
    </vehicle>

    <vehicle id="WE_wakeup_car_right.3" type="car" depart="850.00" arrival="871.00">
        <route edges="-E6 E8"/>
    </vehicle>

    <vehicle id="NS_wakeup_car.5" type="car" depart="854.00" arrival="873.00">
        <route edges="-E7 E8"/>
    </vehicle>

    <vehicle id="NS_wakeup_car_left.2" type="car" depart="763.00" arrival="886.00">
        <route edges="-E7 E5"/>
    </vehicle>

    <vehicle id="NS_wakeup_moto_right.0" type="motorcycle" depart="867.00" arrival="888.00">
        <route edges="-E7 E6"/>
    </vehicle>

    <vehicle id="SN_wakeup_truck.2" type="truck" depart="945.00" arrival="968.00">
        <route edges="-E8 E7"/>
    </vehicle>

    <vehicle id="SN_wakeup_car_left.3" type="car" depart="936.00" arrival="1004.00">
        <route edges="-E8 E6"/>
    </vehicle>

    <vehicle id="NS_wakeup_car_right.1" type="car" depart="993.00" arrival="1013.00">
        <route edges="-E7 E6"/>
    </vehicle>

    <vehicle id="EW_wakeup_moto.0" type="motorcycle" depart="939.00" arrival="1023.00">
        <route edges="-E5 E6"/>
    </vehicle>

    <vehicle id="WE_wakeup_moto.2" type="motorcycle" depart="948.00" arrival="1023.00">
        <route edges="-E6 E5"/>
    </vehicle>

    <vehicle id="EW_wakeup_car.5" type="car" depart="1012.00" arrival="1030.00">
        <route edges="-E5 E6"/>
    </vehicle>

    <vehicle id="EW_wakeup_truck.1" type="truck" depart="1026.00" arrival="1048.00">
        <route edges="-E5 E6"/>
    </vehicle>

    <vehicle id="SN_wakeup_car.11" type="car" depart="997.00" arrival="1073.00">
        <route edges="-E8 E7"/>
    </vehicle>

    <vehicle id="SN_wakeup_moto.10" type="motorcycle" depart="988.00" arrival="1074.00">
        <route edges="-E8 E7"/>
    </vehicle>

    <vehicle id="SN_wakeup_moto.11" type="motorcycle" depart="1039.00" arrival="1076.00">
        <route edges="-E8 E7"/>
    </vehicle>

    <vehicle id="SN_wakeup_truck.3" type="truck" depart="1009.00" arrival="1077.00">
        <route edges="-E8 E7"/>
    </vehicle>

    <vehicle id="WE_wakeup_moto.3" type="motorcycle" depart="1116.00" arrival="1139.00">
        <route edges="-E6 E5"/>
    </vehicle>

    <vehicle id="EW_wakeup_car.6" type="car" depart="1050.00" arrival="1140.00">
        <route edges="-E5 E6"/>
    </vehicle>

    <vehicle id="WE_wakeup_car.3" type="car" depart="1142.00" arrival="1160.00">
        <route edges="-E6 E5"/>
    </vehicle>

    <vehicle id="WE_wakeup_car_left.3" type="car" depart="1125.00" arrival="1174.00">
        <route edges="-E6 E7"/>
    </vehicle>

    <vehicle id="NS_wakeup_car.6" type="car" depart="1158.00" arrival="1191.00">
        <route edges="-E7 E8"/>
    </vehicle>

    <vehicle id="SN_wakeup_car.12" type="car" depart="1118.00" arrival="1192.00">
        <route edges="-E8 E7"/>
    </vehicle>

    <vehicle id="SN_wakeup_moto_right.1" type="motorcycle" depart="1165.00" arrival="1193.00">
        <route edges="-E8 E5"/>
    </vehicle>

    <vehicle id="NS_wakeup_moto.2" type="motorcycle" depart="1176.00" arrival="1194.00">
        <route edges="-E7 E8"/>
    </vehicle>

    <vehicle id="SN_wakeup_truck.4" type="truck" depart="1186.00" arrival="1208.00">
        <route edges="-E8 E7"/>
    </vehicle>

    <vehicle id="NS_wakeup_car.7" type="car" depart="1205.00" arrival="1223.00">
        <route edges="-E7 E8"/>
    </vehicle>

    <vehicle id="NS_wakeup_moto_left.2" type="motorcycle" depart="1144.00" arrival="1240.00">
        <route edges="-E7 E5"/>
    </vehicle>

    <vehicle id="SN_wakeup_car_right.0" type="car" depart="1221.00" arrival="1243.00">
        <route edges="-E8 E5"/>
    </vehicle>

    <vehicle id="EW_wakeup_moto.1" type="motorcycle" depart="1180.00" arrival="1258.00">
        <route edges="-E5 E6"/>
    </vehicle>

    <vehicle id="WE_wakeup_car_right.4" type="car" depart="1184.00" arrival="1260.00">
        <route edges="-E6 E8"/>
    </vehicle>

    <vehicle id="WE_wakeup_truck.0" type="truck" depart="1149.00" arrival="1261.00">
        <route edges="-E6 E5"/>
    </vehicle>

    <vehicle id="EW_wakeup_car.7" type="car" depart="1245.00" arrival="1263.00">
        <route edges="-E5 E6"/>
    </vehicle>

    <vehicle id="WE_wakeup_car_right.5" type="car" depart="1218.00" arrival="1264.00">
        <route edges="-E6 E8"/>
    </vehicle>

    <vehicle id="WE_wakeup_moto.4" type="motorcycle" depart="1246.00" arrival="1265.00">
        <route edges="-E6 E5"/>
    </vehicle>

    <vehicle id="NS_wakeup_car.8" type="car" depart="1232.00" arrival="1310.00">
        <route edges="-E7 E8"/>
    </vehicle>

    <vehicle id="NS_wakeup_car_right.2" type="car" depart="1262.00" arrival="1311.00">
        <route edges="-E7 E6"/>
    </vehicle>

    <vehicle id="EW_wakeup_car_right.5" type="car" depart="1298.00" arrival="1318.00">
        <route edges="-E5 E7"/>
    </vehicle>

    <vehicle id="SN_wakeup_moto_right.2" type="motorcycle" depart="1331.00" arrival="1354.00">
        <route edges="-E8 E5"/>
    </vehicle>

    <vehicle id="SN_wakeup_car_left.4" type="car" depart="1264.00" arrival="1358.00">
        <route edges="-E8 E6"/>
    </vehicle>

    <vehicle id="EW_wakeup_car.8" type="car" depart="1273.00" arrival="1376.00">
        <route edges="-E5 E6"/>
    </vehicle>

    <vehicle id="WE_wakeup_car.4" type="car" depart="1328.00" arrival="1376.00">
        <route edges="-E6 E5"/>
    </vehicle>

    <vehicle id="WE_wakeup_car.5" type="car" depart="1333.00" arrival="1376.00">
        <route edges="-E6 E5"/>
    </vehicle>

    <vehicle id="EW_wakeup_car_left.2" type="car" depart="1361.00" arrival="1409.00">
        <route edges="-E5 E8"/>
    </vehicle>

    <vehicle id="WE_wakeup_car_right.6" type="car" depart="1396.00" arrival="1416.00">
        <route edges="-E6 E8"/>
    </vehicle>

    <vehicle id="SN_wakeup_car.13" type="car" depart="1366.00" arrival="1427.00">
        <route edges="-E8 E7"/>
    </vehicle>

    <vehicle id="SN_wakeup_car.14" type="car" depart="1377.00" arrival="1427.00">
        <route edges="-E8 E7"/>
    </vehicle>

    <vehicle id="SN_wakeup_moto_right.3" type="motorcycle" depart="1395.00" arrival="1431.00">
        <route edges="-E8 E5"/>
    </vehicle>

    <vehicle id="NS_wakeup_moto.3" type="motorcycle" depart="1426.00" arrival="1444.00">
        <route edges="-E7 E8"/>
    </vehicle>

    <vehicle id="SN_wakeup_car.15" type="car" depart="1425.00" arrival="1445.00">
        <route edges="-E8 E7"/>
    </vehicle>

    <vehicle id="SN_wakeup_car_left.5" type="car" depart="1440.00" arrival="1476.00">
        <route edges="-E8 E6"/>
    </vehicle>

    <vehicle id="EW_wakeup_car.9" type="car" depart="1395.00" arrival="1494.00">
        <route edges="-E5 E6"/>
    </vehicle>

    <vehicle id="WE_wakeup_car_right.7" type="car" depart="1480.00" arrival="1506.00">
        <route edges="-E6 E8"/>
    </vehicle>

    <vehicle id="WE_wakeup_car.6" type="car" depart="1489.00" arrival="1508.00">
        <route edges="-E6 E5"/>
    </vehicle>

    <vehicle id="EW_wakeup_car_left.3" type="car" depart="1473.00" arrival="1527.00">
        <route edges="-E5 E8"/>
    </vehicle>

    <vehicle id="NS_wakeup_car.9" type="car" depart="1496.00" arrival="1545.00">
        <route edges="-E7 E8"/>
    </vehicle>

    <vehicle id="SN_wakeup_moto.12" type="motorcycle" depart="1480.00" arrival="1546.00">
        <route edges="-E8 E7"/>
    </vehicle>

    <vehicle id="SN_wakeup_delivery.1" type="delivery" depart="1534.00" arrival="1558.00">
        <route edges="-E8 E7"/>
    </vehicle>

    <vehicle id="NS_wakeup_car.10" type="car" depart="1540.00" arrival="1559.00">
        <route edges="-E7 E8"/>
    </vehicle>

    <vehicle id="NS_wakeup_car.11" type="car" depart="1545.00" arrival="1563.00">
        <route edges="-E7 E8"/>
    </vehicle>

    <vehicle id="NS_wakeup_car.12" type="car" depart="1553.00" arrival="1571.00">
        <route edges="-E7 E8"/>
    </vehicle>

    <vehicle id="NS_wakeup_car_right.3" type="car" depart="1576.00" arrival="1596.00">
        <route edges="-E7 E6"/>
    </vehicle>

    <vehicle id="EW_wakeup_car.11" type="car" depart="1553.00" arrival="1599.00">
        <route edges="-E5 E6"/>
    </vehicle>

    <vehicle id="EW_wakeup_car.10" type="car" depart="1536.00" arrival="1601.00">
        <route edges="-E5 E6"/>
    </vehicle>

    <vehicle id="EW_wakeup_car.12" type="car" depart="1590.00" arrival="1610.00">
        <route edges="-E5 E6"/>
    </vehicle>

    <vehicle id="WE_wakeup_moto.5" type="motorcycle" depart="1526.00" arrival="1612.00">
        <route edges="-E6 E5"/>
    </vehicle>

    <vehicle id="WE_wakeup_truck.1" type="truck" depart="1523.00" arrival="1614.00">
        <route edges="-E6 E5"/>
    </vehicle>

    <vehicle id="WE_wakeup_bus.0" type="bus" depart="1576.00" arrival="1620.00">
        <route edges="-E6 E5"/>
    </vehicle>

    <vehicle id="EW_wakeup_car_left.4" type="car" depart="1585.00" arrival="1645.00">
        <route edges="-E5 E8"/>
    </vehicle>

    <vehicle id="SN_wakeup_car.16" type="car" depart="1584.00" arrival="1663.00">
        <route edges="-E8 E7"/>
    </vehicle>

    <vehicle id="NS_wakeup_truck.3" type="truck" depart="1629.00" arrival="1666.00">
        <route edges="-E7 E8"/>
    </vehicle>

    <vehicle id="EW_wakeup_car.13" type="car" depart="1629.00" arrival="1712.00">
        <route edges="-E5 E6"/>
    </vehicle>

    <vehicle id="EW_wakeup_car.14" type="car" depart="1685.00" arrival="1714.00">
        <route edges="-E5 E6"/>
    </vehicle>

    <vehicle id="EW_wakeup_car.15" type="car" depart="1695.00" arrival="1716.00">
        <route edges="-E5 E6"/>
    </vehicle>

    <vehicle id="EW_wakeup_delivery.1" type="delivery" depart="1652.00" arrival="1722.00">
        <route edges="-E5 E6"/>
    </vehicle>

    <vehicle id="EW_wakeup_moto.3" type="motorcycle" depart="1699.00" arrival="1724.00">
        <route edges="-E5 E6"/>
    </vehicle>

    <vehicle id="EW_wakeup_moto.2" type="motorcycle" depart="1626.00" arrival="1730.00">
        <route edges="-E5 E6"/>
    </vehicle>

    <vehicle id="EW_wakeup_moto.4" type="motorcycle" depart="1714.00" arrival="1733.00">
        <route edges="-E5 E6"/>
    </vehicle>

    <vehicle id="NS_wakeup_car.13" type="car" depart="1715.00" arrival="1781.00">
        <route edges="-E7 E8"/>
    </vehicle>

    <vehicle id="NS_wakeup_car.14" type="car" depart="1766.00" arrival="1785.00">
        <route edges="-E7 E8"/>
    </vehicle>

    <vehicle id="NS_wakeup_bus.1" type="bus" depart="1748.00" arrival="1788.00">
        <route edges="-E7 E8"/>
    </vehicle>

    <vehicle id="SN_wakeup_bus.0" type="bus" depart="1764.00" arrival="1792.00">
        <route edges="-E8 E7"/>
    </vehicle>

    <vehicle id="SN_wakeup_moto.13" type="motorcycle" depart="1790.00" arrival="1808.00">
        <route edges="-E8 E7"/>
    </vehicle>

    <vehicle id="NS_wakeup_moto.4" type="motorcycle" depart="1804.00" arrival="1822.00">
        <route edges="-E7 E8"/>
    </vehicle>

    <vehicle id="EW_wakeup_car.16" type="car" depart="1783.00" arrival="1848.00">
        <route edges="-E5 E6"/>
    </vehicle>

    <vehicle id="WE_wakeup_delivery.1" type="delivery" depart="1753.00" arrival="1851.00">
        <route edges="-E6 E5"/>
    </vehicle>

    <vehicle id="WE_wakeup_delivery.2" type="delivery" depart="1777.00" arrival="1851.00">
        <route edges="-E6 E5"/>
    </vehicle>

    <vehicle id="WE_wakeup_car.7" type="car" depart="1785.00" arrival="1853.00">
        <route edges="-E6 E5"/>
    </vehicle>

    <vehicle id="WE_wakeup_moto.6" type="motorcycle" depart="1804.00" arrival="1853.00">
        <route edges="-E6 E5"/>
    </vehicle>

    <vehicle id="WE_wakeup_car.8" type="car" depart="1824.00" arrival="1855.00">
        <route edges="-E6 E5"/>
    </vehicle>

    <vehicle id="WE_wakeup_moto.7" type="motorcycle" depart="1833.00" arrival="1855.00">
        <route edges="-E6 E5"/>
    </vehicle>

    <vehicle id="SN_wakeup_moto.14" type="motorcycle" depart="1817.00" arrival="1898.00">
        <route edges="-E8 E7"/>
    </vehicle>

    <vehicle id="SN_wakeup_car.17" type="car" depart="1836.00" arrival="1899.00">
        <route edges="-E8 E7"/>
    </vehicle>

    <vehicle id="NS_wakeup_car.15" type="car" depart="1873.00" arrival="1899.00">
        <route edges="-E7 E8"/>
    </vehicle>

    <vehicle id="NS_wakeup_moto.5" type="motorcycle" depart="1812.00" arrival="1900.00">
        <route edges="-E7 E8"/>
    </vehicle>

    <vehicle id="SN_wakeup_car.18" type="car" depart="1841.00" arrival="1901.00">
        <route edges="-E8 E7"/>
    </vehicle>

    <vehicle id="SN_wakeup_truck.5" type="truck" depart="1860.00" arrival="1904.00">
        <route edges="-E8 E7"/>
    </vehicle>

    <vehicle id="SN_wakeup_moto.15" type="motorcycle" depart="1895.00" arrival="1914.00">
        <route edges="-E8 E7"/>
    </vehicle>

    <vehicle id="SN_wakeup_moto_right.4" type="motorcycle" depart="1919.00" arrival="1942.00">
        <route edges="-E8 E5"/>
    </vehicle>

    <vehicle id="SN_wakeup_car_left.6" type="car" depart="1928.00" arrival="1949.00">
        <route edges="-E8 E6"/>
    </vehicle>

    <vehicle id="WE_wakeup_car.9" type="car" depart="1863.00" arrival="1966.00">
        <route edges="-E6 E5"/>
    </vehicle>

    <vehicle id="WE_wakeup_moto.8" type="motorcycle" depart="1875.00" arrival="1966.00">
        <route edges="-E6 E5"/>
    </vehicle>

    <vehicle id="EW_wakeup_car.17" type="car" depart="1955.00" arrival="1974.00">
        <route edges="-E5 E6"/>
    </vehicle>

    <vehicle id="EW_wakeup_moto.5" type="motorcycle" depart="1965.00" arrival="1985.00">
        <route edges="-E5 E6"/>
    </vehicle>

    <vehicle id="SN_wakeup_moto.16" type="motorcycle" depart="1987.00" arrival="2017.00">
        <route edges="-E8 E7"/>
    </vehicle>

    <vehicle id="NS_wakeup_bus.2" type="bus" depart="2000.00" arrival="2028.00">
        <route edges="-E7 E8"/>
    </vehicle>

    <vehicle id="WE_wakeup_car.10" type="car" depart="2024.00" arrival="2084.00">
        <route edges="-E6 E5"/>
    </vehicle>

    <vehicle id="EW_wakeup_car.18" type="car" depart="2085.00" arrival="2103.00">
        <route edges="-E5 E6"/>
    </vehicle>

    <vehicle id="WE_wakeup_delivery.3" type="delivery" depart="2091.00" arrival="2115.00">
        <route edges="-E6 E5"/>
    </vehicle>

    <vehicle id="NS_wakeup_car.16" type="car" depart="2060.00" arrival="2136.00">
        <route edges="-E7 E8"/>
    </vehicle>

    <vehicle id="SN_wakeup_truck.6" type="truck" depart="2085.00" arrival="2138.00">
        <route edges="-E8 E7"/>
    </vehicle>

    <vehicle id="SN_wakeup_moto_right.5" type="motorcycle" depart="2132.00" arrival="2152.00">
        <route edges="-E8 E5"/>
    </vehicle>

    <vehicle id="NS_wakeup_bus.3" type="bus" depart="2128.00" arrival="2156.00">
        <route edges="-E7 E8"/>
    </vehicle>

    <vehicle id="SN_wakeup_delivery.2" type="delivery" depart="2143.00" arrival="2167.00">
        <route edges="-E8 E7"/>
    </vehicle>

    <vehicle id="SN_wakeup_delivery.3" type="delivery" depart="2154.00" arrival="2178.00">
        <route edges="-E8 E7"/>
    </vehicle>

    <vehicle id="SN_wakeup_moto_left.2" type="motorcycle" depart="2066.00" arrival="2183.00">
        <route edges="-E8 E6"/>
    </vehicle>

    <vehicle id="NS_wakeup_car_left.3" type="car" depart="2136.00" arrival="2185.00">
        <route edges="-E7 E5"/>
    </vehicle>

    <vehicle id="SN_wakeup_car_left.7" type="car" depart="2130.00" arrival="2186.00">
        <route edges="-E8 E6"/>
    </vehicle>

    <vehicle id="EW_wakeup_car.19" type="car" depart="2190.00" arrival="2209.00">
        <route edges="-E5 E6"/>
    </vehicle>

    <vehicle id="EW_wakeup_car_right.6" type="car" depart="2193.00" arrival="2215.00">
        <route edges="-E5 E7"/>
    </vehicle>

    <vehicle id="WE_wakeup_car_left.4" type="car" depart="2124.00" arrival="2236.00">
        <route edges="-E6 E7"/>
    </vehicle>

    <vehicle id="SN_wakeup_car.19" type="car" depart="2163.00" arrival="2253.00">
        <route edges="-E8 E7"/>
    </vehicle>

    <vehicle id="NS_wakeup_car.18" type="car" depart="2212.00" arrival="2253.00">
        <route edges="-E7 E8"/>
    </vehicle>

    <vehicle id="NS_wakeup_car.17" type="car" depart="2163.00" arrival="2254.00">
        <route edges="-E7 E8"/>
    </vehicle>

    <vehicle id="NS_wakeup_truck.4" type="truck" depart="2242.00" arrival="2265.00">
        <route edges="-E7 E8"/>
    </vehicle>

    <vehicle id="NS_wakeup_delivery.2" type="delivery" depart="2268.00" arrival="2292.00">
        <route edges="-E7 E8"/>
    </vehicle>

    <vehicle id="NS_wakeup_car.19" type="car" depart="2271.00" arrival="2294.00">
        <route edges="-E7 E8"/>
    </vehicle>

    <vehicle id="SN_wakeup_moto.17" type="motorcycle" depart="2276.00" arrival="2297.00">
        <route edges="-E8 E7"/>
    </vehicle>

    <vehicle id="NS_wakeup_car_left.4" type="car" depart="2238.00" arrival="2302.00">
        <route edges="-E7 E5"/>
    </vehicle>

    <vehicle id="EW_wakeup_car_right.7" type="car" depart="2288.00" arrival="2309.00">
        <route edges="-E5 E7"/>
    </vehicle>

    <vehicle id="WE_wakeup_car.11" type="car" depart="2243.00" arrival="2320.00">
        <route edges="-E6 E5"/>
    </vehicle>

    <vehicle id="WE_wakeup_car_left.5" type="car" depart="2306.00" arrival="2353.00">
        <route edges="-E6 E7"/>
    </vehicle>

    <vehicle id="NS_wakeup_moto.6" type="motorcycle" depart="2287.00" arrival="2371.00">
        <route edges="-E7 E8"/>
    </vehicle>

    <vehicle id="NS_wakeup_car.20" type="car" depart="2309.00" arrival="2373.00">
        <route edges="-E7 E8"/>
    </vehicle>

    <vehicle id="NS_wakeup_truck.5" type="truck" depart="2290.00" arrival="2374.00">
        <route edges="-E7 E8"/>
    </vehicle>

    <vehicle id="NS_wakeup_car.21" type="car" depart="2318.00" arrival="2376.00">
        <route edges="-E7 E8"/>
    </vehicle>

    <vehicle id="NS_wakeup_delivery.3" type="delivery" depart="2336.00" arrival="2378.00">
        <route edges="-E7 E8"/>
    </vehicle>

    <vehicle id="SN_wakeup_car_right.1" type="car" depart="2384.00" arrival="2407.00">
        <route edges="-E8 E5"/>
    </vehicle>

    <vehicle id="SN_wakeup_moto_right.6" type="motorcycle" depart="2401.00" arrival="2421.00">
        <route edges="-E8 E5"/>
    </vehicle>

    <vehicle id="NS_wakeup_car_left.5" type="car" depart="2409.00" arrival="2429.00">
        <route edges="-E7 E5"/>
    </vehicle>
